Title Card Required                                                     
Freq      RB3LYP                                                      6-311G(d,p)         
Number of atoms                            I               13
Info1-9                                    I   N=           9
          36          35        1002           0           0         100
           6          18        -502
Charge                                     I                0
Multiplicity                               I                1
Number of electrons                        I               42
Number of alpha electrons                  I               21
Number of beta electrons                   I               21
Number of basis functions                  I              138
Number of independent functions            I              138
Number of point charges in /Mol/           I                0
Number of translation vectors              I                0
Atomic numbers                             I   N=          13
           6           1           1           8           8           6
           1           1           1           6           1           1
           1
Nuclear charges                            R   N=          13
  6.00000000E+00  1.00000000E+00  1.00000000E+00  8.00000000E+00  8.00000000E+00
  6.00000000E+00  1.00000000E+00  1.00000000E+00  1.00000000E+00  6.00000000E+00
  1.00000000E+00  1.00000000E+00  1.00000000E+00
Current cartesian coordinates              R   N=          39
 -4.38953079E-02  1.32426179E+00  3.88582464E-01 -6.74029776E-01  3.23609649E+00
 -1.13829261E-01 -1.20534044E-01  1.08691151E+00  2.46757953E+00  2.40346710E+00
  1.09274520E+00 -5.01625623E-01 -1.60976804E+00 -5.12825791E-01 -7.60722727E-01
  3.62090668E+00 -1.18516759E+00  2.50531956E-01  2.68305046E+00 -2.84050020E+00
 -5.53575417E-01  5.55481868E+00 -1.07774639E+00 -4.47717400E-01  3.65315449E+00
 -1.35900273E+00  2.32014466E+00 -4.09774950E+00 -4.96568771E-01  2.07454345E-01
 -5.03841388E+00  1.32868541E+00 -1.13529895E-01 -5.14692172E+00 -1.96445220E+00
 -7.85411626E-01 -4.13628793E+00 -9.04499715E-01  2.24571362E+00
Force Field                                I                0
Int Atom Types                             I   N=          13
           0           0           0           0           0           0
           0           0           0           0           0           0
           0
MM charges                                 R   N=          13
  0.00000000E+00  0.00000000E+00  0.00000000E+00  0.00000000E+00  0.00000000E+00
  0.00000000E+00  0.00000000E+00  0.00000000E+00  0.00000000E+00  0.00000000E+00
  0.00000000E+00  0.00000000E+00  0.00000000E+00
Integer atomic weights                     I   N=          13
          12           1           1          16          16          12
           1           1           1          12           1           1
           1
Real atomic weights                        R   N=          13
  1.20000000E+01  1.00782504E+00  1.00782504E+00  1.59949146E+01  1.59949146E+01
  1.20000000E+01  1.00782504E+00  1.00782504E+00  1.00782504E+00  1.20000000E+01
  1.00782504E+00  1.00782504E+00  1.00782504E+00
Atom fragment info                         I   N=          13
           0           0           0           0           0           0
           0           0           0           0           0           0
           0
Atom residue num                           I   N=          13
           0           0           0           0           0           0
           0           0           0           0           0           0
           0
Nuclear spins                              I   N=          13
           0           1           1           0           0           0
           1           1           1           0           1           1
           1
Nuclear ZEff                               R   N=          13
 -3.60000000E+00 -1.00000000E+00 -1.00000000E+00 -5.60000000E+00 -5.60000000E+00
 -3.60000000E+00 -1.00000000E+00 -1.00000000E+00 -1.00000000E+00 -3.60000000E+00
 -1.00000000E+00 -1.00000000E+00 -1.00000000E+00
Nuclear QMom                               R   N=          13
  0.00000000E+00  0.00000000E+00  0.00000000E+00  0.00000000E+00  0.00000000E+00
  0.00000000E+00  0.00000000E+00  0.00000000E+00  0.00000000E+00  0.00000000E+00
  0.00000000E+00  0.00000000E+00  0.00000000E+00
Nuclear GFac                               R   N=          13
  0.00000000E+00  2.79284600E+00  2.79284600E+00  0.00000000E+00  0.00000000E+00
  0.00000000E+00  2.79284600E+00  2.79284600E+00  2.79284600E+00  0.00000000E+00
  2.79284600E+00  2.79284600E+00  2.79284600E+00
MicOpt                                     I   N=          13
          -1          -1          -1          -1          -1          -1
          -1          -1          -1          -1          -1          -1
          -1
Number of contracted shells                I               57
Number of primitive shells                 I              108
Pure/Cartesian d shells                    I                0
Pure/Cartesian f shells                    I                0
Highest angular momentum                   I                2
Largest degree of contraction              I                6
Shell types                                I   N=          57
           0          -1          -1          -1          -2           0
           0           0           1           0           0           0
           1           0          -1          -1          -1          -2
           0          -1          -1          -1          -2           0
          -1          -1          -1          -2           0           0
           0           1           0           0           0           1
           0           0           0           1           0          -1
          -1          -1          -2           0           0           0
           1           0           0           0           1           0
           0           0           1
Number of primitives per shell             I   N=          57
           6           3           1           1           1           3
           1           1           1           3           1           1
           1           6           3           1           1           1
           6           3           1           1           1           6
           3           1           1           1           3           1
           1           1           3           1           1           1
           3           1           1           1           6           3
           1           1           1           3           1           1
           1           3           1           1           1           3
           1           1           1
Shell to atom map                          I   N=          57
           1           1           1           1           1           2
           2           2           2           3           3           3
           3           4           4           4           4           4
           5           5           5           5           5           6
           6           6           6           6           7           7
           7           7           8           8           8           8
           9           9           9           9          10          10
          10          10          10          11          11          11
          11          12          12          12          12          13
          13          13          13
Primitive exponents                        R   N=         108
  4.56324000E+03  6.82024000E+02  1.54973000E+02  4.44553000E+01  1.30290000E+01
  1.82773000E+00  2.09642000E+01  4.80331000E+00  1.45933000E+00  4.83456000E-01
  1.45585000E-01  6.26000000E-01  3.38650000E+01  5.09479000E+00  1.15879000E+00
  3.25840000E-01  1.02741000E-01  7.50000000E-01  3.38650000E+01  5.09479000E+00
  1.15879000E+00  3.25840000E-01  1.02741000E-01  7.50000000E-01  8.58850000E+03
  1.29723000E+03  2.99296000E+02  8.73771000E+01  2.56789000E+01  3.74004000E+00
  4.21175000E+01  9.62837000E+00  2.85332000E+00  9.05661000E-01  2.55611000E-01
  1.29200000E+00  8.58850000E+03  1.29723000E+03  2.99296000E+02  8.73771000E+01
  2.56789000E+01  3.74004000E+00  4.21175000E+01  9.62837000E+00  2.85332000E+00
  9.05661000E-01  2.55611000E-01  1.29200000E+00  4.56324000E+03  6.82024000E+02
  1.54973000E+02  4.44553000E+01  1.30290000E+01  1.82773000E+00  2.09642000E+01
  4.80331000E+00  1.45933000E+00  4.83456000E-01  1.45585000E-01  6.26000000E-01
  3.38650000E+01  5.09479000E+00  1.15879000E+00  3.25840000E-01  1.02741000E-01
  7.50000000E-01  3.38650000E+01  5.09479000E+00  1.15879000E+00  3.25840000E-01
  1.02741000E-01  7.50000000E-01  3.38650000E+01  5.09479000E+00  1.15879000E+00
  3.25840000E-01  1.02741000E-01  7.50000000E-01  4.56324000E+03  6.82024000E+02
  1.54973000E+02  4.44553000E+01  1.30290000E+01  1.82773000E+00  2.09642000E+01
  4.80331000E+00  1.45933000E+00  4.83456000E-01  1.45585000E-01  6.26000000E-01
  3.38650000E+01  5.09479000E+00  1.15879000E+00  3.25840000E-01  1.02741000E-01
  7.50000000E-01  3.38650000E+01  5.09479000E+00  1.15879000E+00  3.25840000E-01
  1.02741000E-01  7.50000000E-01  3.38650000E+01  5.09479000E+00  1.15879000E+00
  3.25840000E-01  1.02741000E-01  7.50000000E-01
Contraction coefficients                   R   N=         108
  1.96665025E-03  1.52306019E-02  7.61269097E-02  2.60801033E-01  6.16462078E-01
  2.21006028E-01  1.14660081E-01  9.19999648E-01 -3.03068213E-03  1.00000000E+00
  1.00000000E+00  1.00000000E+00  2.54938145E-02  1.90373109E-01  8.52161486E-01
  1.00000000E+00  1.00000000E+00  1.00000000E+00  2.54938145E-02  1.90373109E-01
  8.52161486E-01  1.00000000E+00  1.00000000E+00  1.00000000E+00  1.89515008E-03
  1.43859006E-02  7.07320031E-02  2.40001011E-01  5.94797026E-01  2.80802012E-01
  1.13889012E-01  9.20811101E-01 -3.27447036E-03  1.00000000E+00  1.00000000E+00
  1.00000000E+00  1.89515008E-03  1.43859006E-02  7.07320031E-02  2.40001011E-01
  5.94797026E-01  2.80802012E-01  1.13889012E-01  9.20811101E-01 -3.27447036E-03
  1.00000000E+00  1.00000000E+00  1.00000000E+00  1.96665025E-03  1.52306019E-02
  7.61269097E-02  2.60801033E-01  6.16462078E-01  2.21006028E-01  1.14660081E-01
  9.19999648E-01 -3.03068213E-03  1.00000000E+00  1.00000000E+00  1.00000000E+00
  2.54938145E-02  1.90373109E-01  8.52161486E-01  1.00000000E+00  1.00000000E+00
  1.00000000E+00  2.54938145E-02  1.90373109E-01  8.52161486E-01  1.00000000E+00
  1.00000000E+00  1.00000000E+00  2.54938145E-02  1.90373109E-01  8.52161486E-01
  1.00000000E+00  1.00000000E+00  1.00000000E+00  1.96665025E-03  1.52306019E-02
  7.61269097E-02  2.60801033E-01  6.16462078E-01  2.21006028E-01  1.14660081E-01
  9.19999648E-01 -3.03068213E-03  1.00000000E+00  1.00000000E+00  1.00000000E+00
  2.54938145E-02  1.90373109E-01  8.52161486E-01  1.00000000E+00  1.00000000E+00
  1.00000000E+00  2.54938145E-02  1.90373109E-01  8.52161486E-01  1.00000000E+00
  1.00000000E+00  1.00000000E+00  2.54938145E-02  1.90373109E-01  8.52161486E-01
  1.00000000E+00  1.00000000E+00  1.00000000E+00
P(S=P) Contraction coefficients            R   N=         108
  0.00000000E+00  0.00000000E+00  0.00000000E+00  0.00000000E+00  0.00000000E+00
  0.00000000E+00  4.02486927E-02  2.37593957E-01  8.15853851E-01  1.00000000E+00
  1.00000000E+00  0.00000000E+00  0.00000000E+00  0.00000000E+00  0.00000000E+00
  0.00000000E+00  0.00000000E+00  0.00000000E+00  0.00000000E+00  0.00000000E+00
  0.00000000E+00  0.00000000E+00  0.00000000E+00  0.00000000E+00  0.00000000E+00
  0.00000000E+00  0.00000000E+00  0.00000000E+00  0.00000000E+00  0.00000000E+00
  3.65113974E-02  2.37152983E-01  8.19701941E-01  1.00000000E+00  1.00000000E+00
  0.00000000E+00  0.00000000E+00  0.00000000E+00  0.00000000E+00  0.00000000E+00
  0.00000000E+00  0.00000000E+00  3.65113974E-02  2.37152983E-01  8.19701941E-01
  1.00000000E+00  1.00000000E+00  0.00000000E+00  0.00000000E+00  0.00000000E+00
  0.00000000E+00  0.00000000E+00  0.00000000E+00  0.00000000E+00  4.02486927E-02
  2.37593957E-01  8.15853851E-01  1.00000000E+00  1.00000000E+00  0.00000000E+00
  0.00000000E+00  0.00000000E+00  0.00000000E+00  0.00000000E+00  0.00000000E+00
  0.00000000E+00  0.00000000E+00  0.00000000E+00  0.00000000E+00  0.00000000E+00
  0.00000000E+00  0.00000000E+00  0.00000000E+00  0.00000000E+00  0.00000000E+00
  0.00000000E+00  0.00000000E+00  0.00000000E+00  0.00000000E+00  0.00000000E+00
  0.00000000E+00  0.00000000E+00  0.00000000E+00  0.00000000E+00  4.02486927E-02
  2.37593957E-01  8.15853851E-01  1.00000000E+00  1.00000000E+00  0.00000000E+00
  0.00000000E+00  0.00000000E+00  0.00000000E+00  0.00000000E+00  0.00000000E+00
  0.00000000E+00  0.00000000E+00  0.00000000E+00  0.00000000E+00  0.00000000E+00
  0.00000000E+00  0.00000000E+00  0.00000000E+00  0.00000000E+00  0.00000000E+00
  0.00000000E+00  0.00000000E+00  0.00000000E+00
Coordinates of each shell                  R   N=         171
 -4.38953079E-02  1.32426179E+00  3.88582464E-01 -4.38953079E-02  1.32426179E+00
  3.88582464E-01 -4.38953079E-02  1.32426179E+00  3.88582464E-01 -4.38953079E-02
  1.32426179E+00  3.88582464E-01 -4.38953079E-02  1.32426179E+00  3.88582464E-01
 -6.74029776E-01  3.23609649E+00 -1.13829261E-01 -6.74029776E-01  3.23609649E+00
 -1.13829261E-01 -6.74029776E-01  3.23609649E+00 -1.13829261E-01 -6.74029776E-01
  3.23609649E+00 -1.13829261E-01 -1.20534044E-01  1.08691151E+00  2.46757953E+00
 -1.20534044E-01  1.08691151E+00  2.46757953E+00 -1.20534044E-01  1.08691151E+00
  2.46757953E+00 -1.20534044E-01  1.08691151E+00  2.46757953E+00  2.40346710E+00
  1.09274520E+00 -5.01625623E-01  2.40346710E+00  1.09274520E+00 -5.01625623E-01
  2.40346710E+00  1.09274520E+00 -5.01625623E-01  2.40346710E+00  1.09274520E+00
 -5.01625623E-01  2.40346710E+00  1.09274520E+00 -5.01625623E-01 -1.60976804E+00
 -5.12825791E-01 -7.60722727E-01 -1.60976804E+00 -5.12825791E-01 -7.60722727E-01
 -1.60976804E+00 -5.12825791E-01 -7.60722727E-01 -1.60976804E+00 -5.12825791E-01
 -7.60722727E-01 -1.60976804E+00 -5.12825791E-01 -7.60722727E-01  3.62090668E+00
 -1.18516759E+00  2.50531956E-01  3.62090668E+00 -1.18516759E+00  2.50531956E-01
  3.62090668E+00 -1.18516759E+00  2.50531956E-01  3.62090668E+00 -1.18516759E+00
  2.50531956E-01  3.62090668E+00 -1.18516759E+00  2.50531956E-01  2.68305046E+00
 -2.84050020E+00 -5.53575417E-01  2.68305046E+00 -2.84050020E+00 -5.53575417E-01
  2.68305046E+00 -2.84050020E+00 -5.53575417E-01  2.68305046E+00 -2.84050020E+00
 -5.53575417E-01  5.55481868E+00 -1.07774639E+00 -4.47717400E-01  5.55481868E+00
 -1.07774639E+00 -4.47717400E-01  5.55481868E+00 -1.07774639E+00 -4.47717400E-01
  5.55481868E+00 -1.07774639E+00 -4.47717400E-01  3.65315449E+00 -1.35900273E+00
  2.32014466E+00  3.65315449E+00 -1.35900273E+00  2.32014466E+00  3.65315449E+00
 -1.35900273E+00  2.32014466E+00  3.65315449E+00 -1.35900273E+00  2.32014466E+00
 -4.09774950E+00 -4.96568771E-01  2.07454345E-01 -4.09774950E+00 -4.96568771E-01
  2.07454345E-01 -4.09774950E+00 -4.96568771E-01  2.07454345E-01 -4.09774950E+00
 -4.96568771E-01  2.07454345E-01 -4.09774950E+00 -4.96568771E-01  2.07454345E-01
 -5.03841388E+00  1.32868541E+00 -1.13529895E-01 -5.03841388E+00  1.32868541E+00
 -1.13529895E-01 -5.03841388E+00  1.32868541E+00 -1.13529895E-01 -5.03841388E+00
  1.32868541E+00 -1.13529895E-01 -5.14692172E+00 -1.96445220E+00 -7.85411626E-01
 -5.14692172E+00 -1.96445220E+00 -7.85411626E-01 -5.14692172E+00 -1.96445220E+00
 -7.85411626E-01 -5.14692172E+00 -1.96445220E+00 -7.85411626E-01 -4.13628793E+00
 -9.04499715E-01  2.24571362E+00 -4.13628793E+00 -9.04499715E-01  2.24571362E+00
 -4.13628793E+00 -9.04499715E-01  2.24571362E+00 -4.13628793E+00 -9.04499715E-01
  2.24571362E+00
Constraint Structure                       R   N=          39
 -4.38953079E-02  1.32426179E+00  3.88582464E-01 -6.74029776E-01  3.23609649E+00
 -1.13829261E-01 -1.20534044E-01  1.08691151E+00  2.46757953E+00  2.40346710E+00
  1.09274520E+00 -5.01625623E-01 -1.60976804E+00 -5.12825791E-01 -7.60722727E-01
  3.62090668E+00 -1.18516759E+00  2.50531956E-01  2.68305046E+00 -2.84050020E+00
 -5.53575417E-01  5.55481868E+00 -1.07774639E+00 -4.47717400E-01  3.65315449E+00
 -1.35900273E+00  2.32014466E+00 -4.09774950E+00 -4.96568771E-01  2.07454345E-01
 -5.03841388E+00  1.32868541E+00 -1.13529895E-01 -5.14692172E+00 -1.96445220E+00
 -7.85411626E-01 -4.13628793E+00 -9.04499715E-01  2.24571362E+00
Num ILSW                                   I              100
ILSW                                       I   N=         100
           0           0           0           1           2           0
           0           0           0           0         402  1342177280
           5           0           0           0           2           0
           0           0           1           0           1           0
           1           0           0           0           0           0
           0           0      100000           0          -1           0
           0           0           0           0           0           0
           0           0           0           1           0           0
           0           0           1           0           0           0
           0           0           4          40           0           0
           0           0           5           0           0           0
           0           0           0           0           0           0
           0           0           0           0           0           0
           0           0           0           0           0           0
           0           0           0           0           0           0
           0           0           0           0           0           0
           0           0           0           0
Num RLSW                                   I               40
RLSW                                       R   N=          40
  8.00000000E-01  7.20000000E-01  1.00000000E+00  8.10000000E-01  2.00000000E-01
  0.00000000E+00  0.00000000E+00  1.00000000E+00  0.00000000E+00  0.00000000E+00
  0.00000000E+00  0.00000000E+00  1.00000000E+00  0.00000000E+00  0.00000000E+00
  0.00000000E+00  0.00000000E+00  1.00000000E+00  0.00000000E+00  0.00000000E+00
  0.00000000E+00  0.00000000E+00  1.00000000E+00  0.00000000E+00  0.00000000E+00
  0.00000000E+00  0.00000000E+00  1.00000000E+00  0.00000000E+00  0.00000000E+00
  0.00000000E+00  0.00000000E+00  1.00000000E+00  0.00000000E+00  0.00000000E+00
  0.00000000E+00  0.00000000E+00  0.00000000E+00  1.00000000E+00  1.00000000E+00
MxBond                                     I                4
NBond                                      I   N=          13
           4           1           1           2           2           4
           1           1           1           4           1           1
           1
IBond                                      I   N=          52
           2           3           4           5           1           0
           0           0           1           0           0           0
           1           6           0           0           1          10
           0           0           4           7           8           9
           6           0           0           0           6           0
           0           0           6           0           0           0
           5          11          12          13          10           0
           0           0          10           0           0           0
          10           0           0           0
RBond                                      R   N=          52
  1.00000000E+00  1.00000000E+00  1.00000000E+00  1.00000000E+00  1.00000000E+00
  0.00000000E+00  0.00000000E+00  0.00000000E+00  1.00000000E+00  0.00000000E+00
  0.00000000E+00  0.00000000E+00  1.00000000E+00  1.00000000E+00  0.00000000E+00
  0.00000000E+00  1.00000000E+00  1.00000000E+00  0.00000000E+00  0.00000000E+00
  1.00000000E+00  1.00000000E+00  1.00000000E+00  1.00000000E+00  1.00000000E+00
  0.00000000E+00  0.00000000E+00  0.00000000E+00  1.00000000E+00  0.00000000E+00
  0.00000000E+00  0.00000000E+00  1.00000000E+00  0.00000000E+00  0.00000000E+00
  0.00000000E+00  1.00000000E+00  1.00000000E+00  1.00000000E+00  1.00000000E+00
  1.00000000E+00  0.00000000E+00  0.00000000E+00  0.00000000E+00  1.00000000E+00
  0.00000000E+00  0.00000000E+00  0.00000000E+00  1.00000000E+00  0.00000000E+00
  0.00000000E+00  0.00000000E+00
Virial Ratio                               R      2.003503043100061E+00
SCF Energy                                 R     -2.696268322983882E+02
Total Energy                               R     -2.696268322983882E+02
RMS Force                                  R      1.812481827986373E-05
RMS Density                                R      2.484139512859180E-09
External E-field                           R   N=          35
  0.00000000E+00  0.00000000E+00  0.00000000E+00  0.00000000E+00  0.00000000E+00
  0.00000000E+00  0.00000000E+00  0.00000000E+00  0.00000000E+00  0.00000000E+00
  0.00000000E+00  0.00000000E+00  0.00000000E+00  0.00000000E+00  0.00000000E+00
  0.00000000E+00  0.00000000E+00  0.00000000E+00  0.00000000E+00  0.00000000E+00
  0.00000000E+00  0.00000000E+00  0.00000000E+00  0.00000000E+00  0.00000000E+00
  0.00000000E+00  0.00000000E+00  0.00000000E+00  0.00000000E+00  0.00000000E+00
  0.00000000E+00  0.00000000E+00  0.00000000E+00  0.00000000E+00  0.00000000E+00
IOpCl                                      I                0
IROHF                                      I                0
Alpha Orbital Energies                     R   N=         138
 -1.91246318E+01 -1.91214457E+01 -1.02631991E+01 -1.02168831E+01 -1.02090365E+01
 -1.07102631E+00 -1.01285305E+00 -7.34789336E-01 -6.85548738E-01 -6.20243706E-01
 -5.07010817E-01 -5.05941805E-01 -5.01543923E-01 -4.43374261E-01 -4.28188941E-01
 -4.24776201E-01 -3.87988469E-01 -3.37562151E-01 -3.28425638E-01 -2.75688535E-01
 -2.63643031E-01  4.16546265E-02  6.42386498E-02  8.27524076E-02  9.14805017E-02
  1.10289840E-01  1.14040021E-01  1.18179223E-01  1.34120572E-01  1.43367440E-01
  1.55031677E-01  2.26407465E-01  2.38442256E-01  3.07488895E-01  3.15310615E-01
  3.27046651E-01  3.46532105E-01  3.88692427E-01  4.29869001E-01  4.50754238E-01
  4.67979707E-01  4.96589305E-01  5.03302294E-01  5.37940614E-01  5.56553739E-01
  5.65586692E-01  5.76791185E-01  5.84105946E-01  5.97840466E-01  6.04397062E-01
  6.55704043E-01  7.28914927E-01  7.54059421E-01  8.01594623E-01  8.31294149E-01
  9.40613909E-01  9.73916903E-01  9.87728647E-01  1.03718847E+00  1.09479667E+00
  1.13328312E+00  1.16192867E+00  1.20116384E+00  1.30485478E+00  1.37539102E+00
  1.43538339E+00  1.44431747E+00  1.44805777E+00  1.46177865E+00  1.47405244E+00
  1.48356029E+00  1.50120532E+00  1.51786476E+00  1.54060977E+00  1.57132701E+00
  1.58405261E+00  1.59821032E+00  1.60862627E+00  1.64978665E+00  1.67470646E+00
  1.69821384E+00  1.71349565E+00  1.75532652E+00  1.86255425E+00  1.93638134E+00
  1.96756600E+00  2.00125825E+00  2.07042349E+00  2.08064948E+00  2.10171695E+00
  2.11907830E+00  2.15083640E+00  2.28869847E+00  2.29697396E+00  2.31630575E+00
  2.34609713E+00  2.40252682E+00  2.42872047E+00  2.44799068E+00  2.45785094E+00
  2.47138348E+00  2.49027901E+00  2.50559469E+00  2.52184639E+00  2.57983705E+00
  2.74886434E+00  2.76880913E+00  2.78221829E+00  2.81135939E+00  2.88459502E+00
  2.92163120E+00  2.98966372E+00  3.08642568E+00  3.09655604E+00  3.16391220E+00
  3.24049186E+00  3.27328568E+00  3.36317284E+00  3.74138399E+00  3.74817806E+00
  3.75338058E+00  3.76475820E+00  3.77826301E+00  3.94680369E+00  3.98259371E+00
  4.06335779E+00  4.08999429E+00  4.93316703E+00  4.95569223E+00  5.17657754E+00
  5.27491399E+00  5.61864601E+00  5.75731106E+00  2.37337797E+01  2.38505399E+01
  2.38656618E+01  4.98681691E+01  4.99086944E+01
Alpha MO coefficients                      R   N=       19044
  1.53633043E-05 -6.37303605E-05  2.26175837E-04  4.83122726E-05 -1.01531932E-04
  3.26800481E-04 -1.19256338E-04 -1.78698212E-04  2.04326254E-04  4.37227802E-03
  2.12904449E-03  1.76262355E-04 -7.64436979E-04  1.42174809E-04  2.45672288E-04
  3.88178052E-06 -2.45151898E-04 -5.47908162E-05  1.71729051E-05 -8.35988088E-04
 -4.10454621E-04 -1.64573429E-04  1.75754113E-04 -2.16215384E-06 -1.93328280E-05
 -7.91005168E-04 -2.35421845E-04 -1.97719618E-04 -1.01868496E-05  2.97630389E-04
  5.51321302E-01  4.69765786E-01 -5.88429908E-04 -9.24256800E-04  7.67456655E-04
  1.34612098E-02 -1.25347740E-04  4.11324287E-05  5.01917573E-05 -9.96270748E-03
  1.05585970E-03  9.44953541E-04 -1.05630447E-03 -1.61233821E-05  3.66156707E-06
  2.78215047E-05  3.10662041E-05 -1.74958932E-05  2.23903678E-04  1.71202888E-04
  3.12409964E-05  2.74847382E-05  1.14355777E-05  2.85374435E-04 -1.19904667E-04
 -8.52307031E-05 -2.64677786E-05 -1.49354924E-03  1.41457914E-05 -2.24989545E-04
 -2.39661537E-04  2.87257640E-05 -9.10258355E-06 -1.09013426E-06 -2.78338102E-05
 -4.13793961E-05  2.19225207E-05 -8.78772803E-05 -2.78955500E-05  1.60117935E-04
 -8.17360773E-05  3.44223435E-04 -1.94192952E-04 -6.39441099E-05  1.32176935E-04
  3.92158602E-03 -1.58436442E-04  9.74264357E-04 -4.19425548E-04  1.20725262E-04
 -1.03235974E-05  2.26365291E-04  1.64812974E-04  1.32953525E-04  1.89078354E-05
 -9.07166225E-04 -1.25264681E-04 -5.86363932E-05 -2.99890609E-04 -3.94042338E-05
  8.56963740E-05 -1.03708694E-03 -3.14908872E-04  2.08082465E-04 -2.86447135E-05
 -6.17917599E-05  2.98063401E-05 -9.49944522E-04 -1.14586465E-04  4.62051663E-05
 -1.48547679E-04  2.76261317E-04 -1.73706567E-08 -8.11740564E-07 -3.84794345E-05
 -8.94362405E-07  1.50646889E-05 -1.19563151E-04  1.41287215E-04  4.52505656E-05
 -3.22778320E-05  1.06652479E-03  5.88822184E-04  5.85667750E-04  3.28280980E-04
 -2.77497418E-05 -4.39075656E-05 -5.31846234E-05  6.34517481E-05 -3.15334916E-05
  5.78476593E-05 -4.41346449E-04  6.69897160E-05 -5.90972471E-05  2.28661065E-05
 -4.96682027E-05 -2.03089808E-05  2.39402200E-04  1.43843434E-04  1.54331472E-05
  4.06350072E-05  3.70837509E-05  4.37731907E-05 -3.63681150E-04 -6.42662742E-06
 -2.05647691E-05 -6.15086008E-05  2.63588241E-05  1.55120504E-05 -5.54458879E-05
 -3.22529178E-05 -1.72631203E-04 -1.01339961E-04 -8.02890806E-05 -4.10441527E-04
  2.06623577E-04  1.82501474E-04  6.74401420E-03  8.83243547E-05 -2.26473502E-03
 -8.35415761E-04  1.23986820E-04 -1.09957472E-04 -2.72197540E-04  6.06569184E-05
 -9.52330833E-05 -1.49804639E-05 -9.13477886E-04  1.03980553E-04 -2.00098684E-05
  3.40537804E-04  4.23064966E-05  1.13580920E-04 -1.74940638E-03 -5.48852146E-05
  2.76771817E-05  1.52024615E-04  4.43724905E-04 -2.22892960E-04 -2.08404273E-04
  7.12009317E-06 -1.27241627E-05  2.58279820E-05  2.12762327E-04 -4.22502022E-05
  6.42287341E-05 -8.97455915E-05 -1.42244040E-03  1.12466707E-03 -2.87742428E-04
  1.20268942E-04  3.05180979E-06  1.42253853E-05  7.04036095E-06 -6.02600395E-05
  4.73376795E-06  5.51320020E-01  4.69758699E-01 -4.50576295E-04  7.52028220E-04
  9.33242532E-04  1.35929103E-02  4.01045418E-05  9.69857490E-05  5.52820222E-05
 -1.06266658E-02  5.43819787E-05 -1.41677859E-03 -1.51309461E-03 -1.94544123E-05
  5.11684009E-06 -4.20027013E-05 -2.88777425E-06 -7.17651068E-06  2.01674490E-06
 -8.67546397E-06 -3.20344091E-05  9.87077512E-06 -1.14609940E-06  2.69647558E-04
  5.97283627E-05  1.88535558E-05  2.81750199E-05 -1.85712953E-03  9.77650045E-04
 -3.07136444E-04 -3.51421029E-04  3.78233479E-05  3.85625409E-05 -2.03674436E-05
 -3.16165112E-05  6.26725666E-06 -4.80173437E-05  4.16530867E-04  1.22124280E-04
  4.78343854E-06  6.99690808E-05  9.09686000E-05  2.94305209E-05 -4.37204704E-05
 -2.36605035E-04 -9.19809282E-06  8.27568290E-06  1.90489147E-05 -3.41735664E-05
  4.72922179E-04  9.98383952E-05 -2.62907500E-05 -9.67131607E-06 -4.15656749E-05
  2.27167856E-05 -9.31946911E-05  1.30655666E-04 -5.13302338E-05 -1.01986282E-04
  3.88731500E-04  1.39264853E-04  1.99176673E-04  1.55657384E-04  4.12257034E-03
  8.38159966E-04 -1.68802560E-04 -5.81093836E-04  3.86519081E-05  2.40908290E-04
 -1.29936032E-04 -1.99239178E-04  5.20771066E-05  2.09666887E-05 -9.64339113E-04
 -1.58809992E-04 -2.19820180E-04  2.22053455E-04  2.94898900E-05  8.83693928E-05
 -1.02645390E-03 -3.30350532E-04 -1.43953610E-04 -1.46202072E-04 -7.23393842E-05
  3.19597918E-05 -9.49574613E-04 -1.52368224E-04 -1.44840779E-04 -3.40079246E-05
  2.84640995E-04  5.63115339E-01  4.63412728E-01  3.27996066E-04 -8.11791768E-04
 -7.58189998E-04  1.74149070E-02 -5.64229495E-04  1.82286727E-03  1.55179615E-03
 -6.38769856E-03  8.57498512E-04  1.38241530E-03 -1.06682348E-03  3.83833401E-04
 -2.72168072E-05 -6.60268809E-04 -6.49341066E-04 -5.68757773E-04  1.69069929E-05
 -3.43125975E-03  1.39963752E-03 -8.04351445E-04  2.14196230E-03 -6.34235102E-04
 -5.21739052E-05 -2.03777914E-03  1.97891847E-03 -8.60465251E-05 -4.30508830E-04
  2.05004679E-03 -3.00533366E-05 -9.02082652E-05 -1.89672185E-04  1.34227198E-05
  7.40682787E-05  8.45884737E-04  1.10984626E-04 -1.05759084E-05 -2.87456128E-05
 -2.21784849E-03  9.17332040E-04  1.79234646E-04 -6.75313069E-04  1.57832159E-04
  2.43080288E-04  4.04807625E-05 -2.59596557E-04  1.37983505E-04 -2.39607631E-05
 -7.01991600E-05  9.08938512E-05  1.18520329E-04  7.56684825E-05  5.99125175E-04
 -5.62789638E-05 -2.64543120E-05 -7.60960123E-06 -8.50175413E-04  6.64340419E-04
 -4.73446932E-04 -4.57360382E-04  8.29759577E-05 -6.36414999E-05 -1.95222872E-04
  1.91580846E-05 -1.81775716E-04 -3.87656922E-05 -1.87510805E-05  7.57191233E-05
 -4.80712569E-05  4.64499346E-06 -4.11018648E-04 -2.41712516E-04  9.50448273E-05
 -2.10384839E-05  2.36730569E-03 -1.72744735E-03  4.30766195E-05  7.74714269E-04
 -5.91486681E-05  6.93997497E-05  9.89658785E-05  1.15739271E-05 -1.74652352E-04
  7.70080056E-05 -7.94174223E-04 -2.14194862E-04  7.88057484E-05 -1.13947625E-04
 -1.46678360E-04 -8.58760381E-06  3.50867409E-04  4.29114206E-04 -4.46679986E-05