 Default is to use a total of   8 processors:
                                8 via shared-memory
                                1 via Linda
 Entering Link 1 = C:\G09W\l1.exe PID=      4672.
  
 Copyright (c) 1988,1990,1992,1993,1995,1998,2003,2009,2013,
            Gaussian, Inc.  All Rights Reserved.
  
 This is part of the Gaussian(R) 09 program.  It is based on
 the Gaussian(R) 03 system (copyright 2003, Gaussian, Inc.),
 the Gaussian(R) 98 system (copyright 1998, Gaussian, Inc.),
 the Gaussian(R) 94 system (copyright 1995, Gaussian, Inc.),
 the Gaussian 92(TM) system (copyright 1992, Gaussian, Inc.),
 the Gaussian 90(TM) system (copyright 1990, Gaussian, Inc.),
 the Gaussian 88(TM) system (copyright 1988, Gaussian, Inc.),
 the Gaussian 86(TM) system (copyright 1986, Carnegie Mellon
 University), and the Gaussian 82(TM) system (copyright 1983,
 Carnegie Mellon University). Gaussian is a federally registered
 trademark of Gaussian, Inc.
  
 This software contains proprietary and confidential information,
 including trade secrets, belonging to Gaussian, Inc.
  
 This software is provided under written license and may be
 used, copied, transmitted, or stored only in accord with that
 written license.
  
 The following legend is applicable only to US Government
 contracts under FAR:
  
                    RESTRICTED RIGHTS LEGEND
  
 Use, reproduction and disclosure by the US Government is
 subject to restrictions as set forth in subparagraphs (a)
 and (c) of the Commercial Computer Software - Restricted
 Rights clause in FAR 52.227-19.
  
 Gaussian, Inc.
 340 Quinnipiac St., Bldg. 40, Wallingford CT 06492
  
  
 ---------------------------------------------------------------
 Warning -- This program may not be used in any manner that
 competes with the business of Gaussian, Inc. or will provide
 assistance to any competitor of Gaussian, Inc.  The licensee
 of this program is prohibited from giving any competitor of
 Gaussian, Inc. access to this program.  By using this program,
 the user acknowledges that Gaussian, Inc. is engaged in the
 business of creating and licensing software in the field of
 computational chemistry and represents and warrants to the
 licensee that it is not a competitor of Gaussian, Inc. and that
 it will not use this program in any manner prohibited above.
 ---------------------------------------------------------------
  

 Cite this work as:
 Gaussian 09, Revision D.01,
 M. J. Frisch, G. W. Trucks, H. B. Schlegel, G. E. Scuseria, 
 M. A. Robb, J. R. Cheeseman, G. Scalmani, V. Barone, B. Mennucci, 
 G. A. Petersson, H. Nakatsuji, M. Caricato, X. Li, H. P. Hratchian, 
 A. F. Izmaylov, J. Bloino, G. Zheng, J. L. Sonnenberg, M. Hada, 
 M. Ehara, K. Toyota, R. Fukuda, J. Hasegawa, M. Ishida, T. Nakajima, 
 Y. Honda, O. Kitao, H. Nakai, T. Vreven, J. A. Montgomery, Jr., 
 J. E. Peralta, F. Ogliaro, M. Bearpark, J. J. Heyd, E. Brothers, 
 K. N. Kudin, V. N. Staroverov, T. Keith, R. Kobayashi, J. Normand, 
 K. Raghavachari, A. Rendell, J. C. Burant, S. S. Iyengar, J. Tomasi, 
 M. Cossi, N. Rega, J. M. Millam, M. Klene, J. E. Knox, J. B. Cross, 
 V. Bakken, C. Adamo, J. Jaramillo, R. Gomperts, R. E. Stratmann, 
 O. Yazyev, A. J. Austin, R. Cammi, C. Pomelli, J. W. Ochterski, 
 R. L. Martin, K. Morokuma, V. G. Zakrzewski, G. A. Voth, 
 P. Salvador, J. J. Dannenberg, S. Dapprich, A. D. Daniels, 
 O. Farkas, J. B. Foresman, J. V. Ortiz, J. Cioslowski, 
 and D. J. Fox, Gaussian, Inc., Wallingford CT, 2013.
 
 ******************************************
 Gaussian 09:  EM64W-G09RevD.01 13-Apr-2013
                08-Aug-2019 
 ******************************************
 %chk=\\icnas1.cc.ic.ac.uk\hc2616\WORK\Student Shapers\calculations\nh3\nh3.chk
 Default route:  MaxDisk=10GB
 ----------------------------------------------------------------------
 # opt freq b3lyp/6-31g(d,p) geom=connectivity integral=grid=ultrafine 
 pop=(full,nbo)
 ----------------------------------------------------------------------
 1/14=-1,18=20,19=15,26=4,38=1,57=2/1,3;
 2/9=110,12=2,17=6,18=5,40=1/2;
 3/5=1,6=6,7=101,11=2,16=1,25=1,30=1,71=1,74=-5,75=-5/1,2,3;
 4//1;
 5/5=2,38=5/2;
 6/7=3,28=1,40=1/1,7;
 7//1,2,3,16;
 1/14=-1,18=20,19=15,26=4/3(2);
 2/9=110/2;
 99//99;
 2/9=110/2;
 3/5=1,6=6,7=101,11=2,16=1,25=1,30=1,71=1,74=-5,75=-5/1,2,3;
 4/5=5,16=3,69=1/1;
 5/5=2,38=5/2;
 7//1,2,3,16;
 1/14=-1,18=20,19=15,26=4/3(-5);
 2/9=110/2;
 6/7=3,19=2,28=1,40=1/1,7;
 99/9=1/99;
 -------------------
 Title Card Required
 -------------------
 Symbolic Z-matrix:
 Charge =  0 Multiplicity = 1
 N                     0.        0.       -0.1 
 H                     0.       -0.94281   0.23333 
 H                    -0.8165    0.4714    0.23333 
 H                     0.8165    0.4714    0.23333 
 

 GradGradGradGradGradGradGradGradGradGradGradGradGradGradGradGradGradGrad
 Berny optimization.
 Initialization pass.
                           ----------------------------
                           !    Initial Parameters    !
                           ! (Angstroms and Degrees)  !
 --------------------------                            --------------------------
 ! Name  Definition              Value          Derivative Info.                !
 --------------------------------------------------------------------------------
 ! R1    R(1,2)                  1.0            estimate D2E/DX2                !
 ! R2    R(1,3)                  1.0            estimate D2E/DX2                !
 ! R3    R(1,4)                  1.0            estimate D2E/DX2                !
 ! A1    A(2,1,3)              109.4712         estimate D2E/DX2                !
 ! A2    A(2,1,4)              109.4712         estimate D2E/DX2                !
 ! A3    A(3,1,4)              109.4712         estimate D2E/DX2                !
 ! D1    D(2,1,4,3)           -120.0            estimate D2E/DX2                !
 --------------------------------------------------------------------------------
 Trust Radius=3.00D-01 FncErr=1.00D-07 GrdErr=1.00D-06
 Number of steps in this run=     20 maximum allowed number of steps=    100.
 GradGradGradGradGradGradGradGradGradGradGradGradGradGradGradGradGradGrad

                          Input orientation:                          
 ---------------------------------------------------------------------
 Center     Atomic      Atomic             Coordinates (Angstroms)
 Number     Number       Type             X           Y           Z
 ---------------------------------------------------------------------
      1          7           0        0.000000    0.000000   -0.100000
      2          1           0        0.000000   -0.942809    0.233333
      3          1           0       -0.816497    0.471405    0.233333
      4          1           0        0.816497    0.471405    0.233333
 ---------------------------------------------------------------------
                    Distance matrix (angstroms):
                    1          2          3          4
     1  N    0.000000
     2  H    1.000000   0.000000
     3  H    1.000000   1.632993   0.000000
     4  H    1.000000   1.632993   1.632993   0.000000
 Stoichiometry    H3N
 Framework group  C3V[C3(N),3SGV(H)]
 Deg. of freedom     2
 Full point group                 C3V     NOp   6
 Largest Abelian subgroup         CS      NOp   2
 Largest concise Abelian subgroup CS      NOp   2
                         Standard orientation:                         
 ---------------------------------------------------------------------
 Center     Atomic      Atomic             Coordinates (Angstroms)
 Number     Number       Type             X           Y           Z
 ---------------------------------------------------------------------
      1          7           0        0.000000    0.000000    0.100000
      2          1           0        0.000000    0.942809   -0.233333
      3          1           0       -0.816497   -0.471405   -0.233333
      4          1           0        0.816497   -0.471405   -0.233333
 ---------------------------------------------------------------------
 Rotational constants (GHZ):    311.9520317    311.9520317    188.0456792
 Standard basis: 6-31G(d,p) (6D, 7F)
 There are    20 symmetry adapted cartesian basis functions of A'  symmetry.
 There are    10 symmetry adapted cartesian basis functions of A"  symmetry.
 There are    20 symmetry adapted basis functions of A'  symmetry.
 There are    10 symmetry adapted basis functions of A"  symmetry.
    30 basis functions,    49 primitive gaussians,    30 cartesian basis functions
     5 alpha electrons        5 beta electrons
       nuclear repulsion energy        12.0848827760 Hartrees.
 NAtoms=    4 NActive=    4 NUniq=    2 SFac= 4.00D+00 NAtFMM=   60 NAOKFM=F Big=F
 Integral buffers will be    131072 words long.
 Raffenetti 2 integral format.
 Two-electron integral symmetry is turned on.
 One-electron integrals computed using PRISM.
 NBasis=    30 RedAO= T EigKep=  2.82D-02  NBF=    20    10
 NBsUse=    30 1.00D-06 EigRej= -1.00D+00 NBFU=    20    10
 ExpMin= 1.61D-01 ExpMax= 4.17D+03 ExpMxC= 6.27D+02 IAcc=3 IRadAn=         5 AccDes= 0.00D+00
 Harris functional with IExCor=  402 and IRadAn=       5 diagonalized for initial guess.
 HarFok:  IExCor=  402 AccDes= 0.00D+00 IRadAn=         5 IDoV= 1 UseB2=F ITyADJ=14
 ICtDFT=  3500011 ScaDFX=  1.000000  1.000000  1.000000  1.000000
 FoFCou: FMM=F IPFlag=           0 FMFlag=      100000 FMFlg1=           0
         NFxFlg=           0 DoJE=T BraDBF=F KetDBF=T FulRan=T
         wScrn=  0.000000 ICntrl=     500 IOpCl=  0 I1Cent=   200000004 NGrid=           0
         NMat0=    1 NMatS0=      1 NMatT0=    0 NMatD0=    1 NMtDS0=    0 NMtDT0=    0
 Petite list used in FoFCou.
 Initial guess orbital symmetries:
       Occupied  (A1) (A1) (E) (E) (A1)
       Virtual   (A1) (E) (E) (A1) (E) (E) (E) (E) (A1) (A1) (E)
                 (E) (A1) (A2) (E) (E) (E) (E) (A1) (E) (E) (A1)
                 (E) (E) (A1)
 The electronic state of the initial guess is 1-A1.
 Keep R1 ints in memory in symmetry-blocked form, NReq=993845.
 Requested convergence on RMS density matrix=1.00D-08 within 128 cycles.
 Requested convergence on MAX density matrix=1.00D-06.
 Requested convergence on             energy=1.00D-06.
 No special actions if energy rises.
 Integral accuracy reduced to 1.0D-05 until final iterations.
 Initial convergence to 1.0D-05 achieved.  Increase integral accuracy.
 SCF Done:  E(RB3LYP) =  -56.5566412371     A.U. after    9 cycles
            NFock=  9  Conv=0.79D-08     -V/T= 2.0081

 **********************************************************************

            Population analysis using the SCF density.

 **********************************************************************

 Orbital symmetries:
       Occupied  (A1) (A1) (E) (E) (A1)
       Virtual   (A1) (E) (E) (E) (E) (A1) (A1) (E) (E) (A1) (E)
                 (E) (A1) (A2) (E) (E) (E) (E) (A1) (E) (E) (A1)
                 (E) (E) (A1)
 The electronic state is 1-A1.
 Alpha  occ. eigenvalues --  -14.29693  -0.84375  -0.45870  -0.45870  -0.24294
 Alpha virt. eigenvalues --    0.08637   0.17688   0.17688   0.68444   0.68444
 Alpha virt. eigenvalues --    0.71649   0.87451   0.88827   0.88827   1.11418
 Alpha virt. eigenvalues --    1.43213   1.43213   1.90050   2.08379   2.22045
 Alpha virt. eigenvalues --    2.22045   2.42718   2.42718   2.72733   3.01137
 Alpha virt. eigenvalues --    3.01137   3.26987   3.44047   3.44047   3.94352
     Molecular Orbital Coefficients:
                           1         2         3         4         5
                        (A1)--O   (A1)--O   (E)--O    (E)--O    (A1)--O
     Eigenvalues --   -14.29693  -0.84375  -0.45870  -0.45870  -0.24294
   1 1   N  1S          0.99270  -0.20210   0.00000   0.00000  -0.06602
   2        2S          0.03471   0.41624   0.00000   0.00000   0.14016
   3        2PX         0.00000   0.00000   0.00000   0.47990   0.00000
   4        2PY         0.00000   0.00000   0.47990   0.00000   0.00000
   5        2PZ        -0.00130  -0.09535   0.00000   0.00000   0.56513
   6        3S          0.00407   0.41059   0.00000   0.00000   0.30190
   7        3PX         0.00000   0.00000   0.00000   0.22698   0.00000
   8        3PY         0.00000   0.00000   0.22698   0.00000   0.00000
   9        3PZ         0.00023  -0.04157   0.00000   0.00000   0.47463
  10        4XX        -0.00800  -0.00736  -0.01253   0.00000   0.00336
  11        4YY        -0.00800  -0.00736   0.01253   0.00000   0.00336
  12        4ZZ        -0.00820  -0.01280   0.00000   0.00000  -0.03300
  13        4XY         0.00000   0.00000   0.00000  -0.01447   0.00000
  14        4XZ         0.00000   0.00000   0.00000  -0.02648   0.00000
  15        4YZ         0.00000   0.00000  -0.02648   0.00000   0.00000
  16 2   H  1S          0.00012   0.14915   0.28493   0.00000  -0.05604
  17        2S         -0.00047   0.02004   0.19990   0.00000  -0.05670
  18        3PX         0.00000   0.00000   0.00000   0.01294   0.00000
  19        3PY         0.00023  -0.01871  -0.00770   0.00000   0.00401
  20        3PZ        -0.00005   0.00446   0.00622   0.00000   0.01644
  21 3   H  1S          0.00012   0.14915  -0.14247  -0.24676  -0.05604
  22        2S         -0.00047   0.02004  -0.09995  -0.17312  -0.05670
  23        3PX        -0.00020   0.01620  -0.00894  -0.00254  -0.00347
  24        3PY        -0.00012   0.00935   0.00778  -0.00894  -0.00200
  25        3PZ        -0.00005   0.00446  -0.00311  -0.00539   0.01644
  26 4   H  1S          0.00012   0.14915  -0.14247   0.24676  -0.05604
  27        2S         -0.00047   0.02004  -0.09995   0.17312  -0.05670
  28        3PX         0.00020  -0.01620   0.00894  -0.00254   0.00347
  29        3PY        -0.00012   0.00935   0.00778   0.00894  -0.00200
  30        3PZ        -0.00005   0.00446  -0.00311   0.00539   0.01644
                           6         7         8         9        10
                        (A1)--V   (E)--V    (E)--V    (E)--V    (E)--V
     Eigenvalues --     0.08637   0.17688   0.17688   0.68444   0.68444
   1 1   N  1S         -0.13160   0.00000   0.00000   0.00000   0.00000
   2        2S          0.17383   0.00000   0.00000   0.00000   0.00000
   3        2PX         0.00000   0.40686   0.00000   0.00000  -0.36035
   4        2PY         0.00000   0.00000  -0.40686  -0.36035   0.00000
   5        2PZ        -0.16578   0.00000   0.00000   0.00000   0.00000
   6        3S          1.87732   0.00000   0.00000   0.00000   0.00000
   7        3PX         0.00000   1.04354   0.00000   0.00000   1.19251
   8        3PY         0.00000   0.00000  -1.04354   1.19251   0.00000
   9        3PZ        -0.40808   0.00000   0.00000   0.00000   0.00000
  10        4XX        -0.04051   0.00000  -0.00508   0.12194   0.00000
  11        4YY        -0.04051   0.00000   0.00508  -0.12194   0.00000
  12        4ZZ        -0.03528   0.00000   0.00000   0.00000   0.00000
  13        4XY         0.00000   0.00587   0.00000   0.00000   0.14080
  14        4XZ         0.00000  -0.01449   0.00000   0.00000   0.07206
  15        4YZ         0.00000   0.00000   0.01449   0.07206   0.00000
  16 2   H  1S         -0.05296   0.00000   0.09154  -0.75819   0.00000
  17        2S         -0.93594   0.00000   1.69399   0.02748   0.00000
  18        3PX         0.00000   0.00836   0.00000   0.00000   0.06002
  19        3PY        -0.00876   0.00000  -0.00028   0.00801   0.00000
  20        3PZ         0.00208   0.00000  -0.00467   0.01522   0.00000
  21 3   H  1S         -0.05296   0.07928  -0.04577   0.37910   0.65661
  22        2S         -0.93594   1.46704  -0.84700  -0.01374  -0.02380
  23        3PX         0.00758   0.00230   0.00350  -0.02252   0.02102
  24        3PY         0.00438  -0.00350  -0.00634   0.04702  -0.02252
  25        3PZ         0.00208  -0.00404   0.00233  -0.00761  -0.01318
  26 4   H  1S         -0.05296  -0.07928  -0.04577   0.37910  -0.65661
  27        2S         -0.93594  -1.46704  -0.84700  -0.01374   0.02380
  28        3PX        -0.00758   0.00230  -0.00350   0.02252   0.02102
  29        3PY         0.00438   0.00350  -0.00634   0.04702   0.02252
  30        3PZ         0.00208   0.00404   0.00233  -0.00761   0.01318
                          11        12        13        14        15
                        (A1)--V   (A1)--V   (E)--V    (E)--V    (A1)--V
     Eigenvalues --     0.71649   0.87451   0.88827   0.88827   1.11418
   1 1   N  1S          0.01159   0.07974   0.00000   0.00000  -0.06844
   2        2S         -0.11510  -0.45671   0.00000   0.00000  -1.59671
   3        2PX         0.00000   0.00000   0.00000  -0.87583   0.00000
   4        2PY         0.00000   0.00000   0.87583   0.00000   0.00000
   5        2PZ        -0.97235   0.07040   0.00000   0.00000   0.14079
   6        3S         -0.15941   0.50496   0.00000   0.00000   4.13534
   7        3PX         0.00000   0.00000   0.00000   1.55166   0.00000
   8        3PY         0.00000   0.00000  -1.55166   0.00000   0.00000
   9        3PZ         1.11999   0.11001   0.00000   0.00000  -0.62772
  10        4XX        -0.07204   0.12307   0.16874   0.00000  -0.35405
  11        4YY        -0.07204   0.12307  -0.16874   0.00000  -0.35405
  12        4ZZ        -0.03556  -0.20681   0.00000   0.00000  -0.10276
  13        4XY         0.00000   0.00000   0.00000  -0.19484   0.00000
  14        4XZ         0.00000   0.00000   0.00000  -0.12224   0.00000
  15        4YZ         0.00000   0.00000   0.12224   0.00000   0.00000
  16 2   H  1S          0.02291   0.67329  -0.46861   0.00000  -0.19679
  17        2S          0.17072  -0.48392   1.60827   0.00000  -0.87167
  18        3PX         0.00000   0.00000   0.00000  -0.04014   0.00000
  19        3PY        -0.04609   0.11414  -0.16261   0.00000   0.00744
  20        3PZ         0.00118   0.01334   0.07025   0.00000  -0.06660
  21 3   H  1S          0.02291   0.67329   0.23430  -0.40583  -0.19679
  22        2S          0.17072  -0.48392  -0.80413   1.39280  -0.87167
  23        3PX         0.03991  -0.09885  -0.08780   0.11193  -0.00644
  24        3PY         0.02304  -0.05707  -0.01055   0.08780  -0.00372
  25        3PZ         0.00118   0.01334  -0.03513   0.06084  -0.06660
  26 4   H  1S          0.02291   0.67329   0.23430   0.40583  -0.19679
  27        2S          0.17072  -0.48392  -0.80413  -1.39280  -0.87167
  28        3PX        -0.03991   0.09885   0.08780   0.11193   0.00644
  29        3PY         0.02304  -0.05707  -0.01055  -0.08780  -0.00372
  30        3PZ         0.00118   0.01334  -0.03513  -0.06084  -0.06660
                          16        17        18        19        20
                        (E)--V    (E)--V    (A1)--V   (A2)--V   (E)--V
     Eigenvalues --     1.43213   1.43213   1.90050   2.08379   2.22045
   1 1   N  1S          0.00000   0.00000  -0.06296   0.00000   0.00000
   2        2S          0.00000   0.00000  -0.59179   0.00000   0.00000
   3        2PX         0.00000   0.01900   0.00000   0.00000  -0.13708
   4        2PY         0.01900   0.00000   0.00000   0.00000   0.00000
   5        2PZ         0.00000   0.00000  -0.00652   0.00000   0.00000
   6        3S          0.00000   0.00000   1.79253   0.00000   0.00000
   7        3PX         0.00000   0.15774   0.00000   0.00000   0.79392
   8        3PY         0.15774   0.00000   0.00000   0.00000   0.00000
   9        3PZ         0.00000   0.00000  -0.57914   0.00000   0.00000
  10        4XX        -0.32101   0.00000   0.27519   0.00000   0.00000
  11        4YY         0.32101   0.00000   0.27519   0.00000   0.00000
  12        4ZZ         0.00000   0.00000  -0.89515   0.00000   0.00000
  13        4XY         0.00000  -0.37067   0.00000   0.00000  -0.46957
  14        4XZ         0.00000   0.55268   0.00000   0.00000  -0.21344
  15        4YZ         0.55268   0.00000   0.00000   0.00000   0.00000
  16 2   H  1S         -0.08017   0.00000  -0.45947   0.00000   0.00000
  17        2S         -0.03143   0.00000  -0.24967   0.00000   0.00000
  18        3PX         0.00000  -0.24453   0.00000   0.58716  -0.38762
  19        3PY         0.08889   0.00000  -0.01409   0.00000   0.00000
  20        3PZ         0.29341   0.00000   0.24251   0.00000   0.00000
  21 3   H  1S          0.04009   0.06943  -0.45947   0.00000   0.49428
  22        2S          0.01572   0.02722  -0.24967   0.00000   0.06568
  23        3PX         0.14437   0.00553   0.01220  -0.29358  -0.40785
  24        3PY        -0.16118   0.14437   0.00704   0.50850  -0.01168
  25        3PZ        -0.14671  -0.25410   0.24251   0.00000   0.30233
  26 4   H  1S          0.04009  -0.06943  -0.45947   0.00000  -0.49428
  27        2S          0.01572  -0.02722  -0.24967   0.00000  -0.06568
  28        3PX        -0.14437   0.00553  -0.01220  -0.29358  -0.40785
  29        3PY        -0.16118  -0.14437   0.00704  -0.50850   0.01168
  30        3PZ        -0.14671   0.25410   0.24251   0.00000  -0.30233
                          21        22        23        24        25
                        (E)--V    (E)--V    (E)--V    (A1)--V   (E)--V
     Eigenvalues --     2.22045   2.42718   2.42718   2.72733   3.01137
   1 1   N  1S          0.00000   0.00000   0.00000   0.00733   0.00000
   2        2S          0.00000   0.00000   0.00000  -0.07120   0.00000
   3        2PX         0.00000   0.00000   0.18295   0.00000   0.00000
   4        2PY        -0.13708   0.18295   0.00000   0.00000  -0.05372
   5        2PZ         0.00000   0.00000   0.00000  -0.13538   0.00000
   6        3S          0.00000   0.00000   0.00000   0.24741   0.00000
   7        3PX         0.00000   0.00000   0.04880   0.00000   0.00000
   8        3PY         0.79392   0.04880   0.00000   0.00000  -0.46181
   9        3PZ         0.00000   0.00000   0.00000  -0.44849   0.00000
  10        4XX        -0.40666   0.35231   0.00000  -0.26233  -0.61591
  11        4YY         0.40666  -0.35231   0.00000  -0.26233   0.61591
  12        4ZZ         0.00000   0.00000   0.00000   0.72763   0.00000
  13        4XY         0.00000   0.00000   0.40682   0.00000   0.00000
  14        4XZ         0.00000   0.00000   0.62808   0.00000   0.00000
  15        4YZ        -0.21344   0.62808   0.00000   0.00000   0.62159
  16 2   H  1S         -0.57075   0.33698   0.00000  -0.02511   0.04377
  17        2S         -0.07584  -0.27007   0.00000  -0.10654   0.25999
  18        3PX         0.00000   0.00000  -0.30123   0.00000   0.00000
  19        3PY        -0.41460   0.06784   0.00000   0.29516  -0.20069
  20        3PZ        -0.34910  -0.61244   0.00000   0.56491  -0.37787
  21 3   H  1S          0.28538  -0.16849  -0.29184  -0.02511  -0.02189
  22        2S          0.03792   0.13503   0.23389  -0.10654  -0.12999
  23        3PX        -0.01168   0.15981  -0.02443  -0.25561  -0.43660
  24        3PY        -0.39437  -0.20896   0.15981  -0.14758   0.55553
  25        3PZ         0.17455   0.30622   0.53038   0.56491   0.18893
  26 4   H  1S          0.28538  -0.16849   0.29184  -0.02511  -0.02189
  27        2S          0.03792   0.13503  -0.23389  -0.10654  -0.12999
  28        3PX         0.01168  -0.15981  -0.02443   0.25561   0.43660
  29        3PY        -0.39437  -0.20896  -0.15981  -0.14758   0.55553
  30        3PZ         0.17455   0.30622  -0.53038   0.56491   0.18893
                          26        27        28        29        30
                        (E)--V    (A1)--V   (E)--V    (E)--V    (A1)--V
     Eigenvalues --     3.01137   3.26987   3.44047   3.44047   3.94352
   1 1   N  1S          0.00000  -0.21549   0.00000   0.00000  -0.42849
   2        2S          0.00000   0.85058   0.00000   0.00000   0.79983
   3        2PX        -0.05372   0.00000  -0.92747   0.00000   0.00000
   4        2PY         0.00000   0.00000   0.00000   0.92747   0.00000
   5        2PZ         0.00000  -0.36289   0.00000   0.00000   0.37637
   6        3S          0.00000   2.09505   0.00000   0.00000   2.52975
   7        3PX        -0.46181   0.00000  -0.94328   0.00000   0.00000
   8        3PY         0.00000   0.00000   0.00000   0.94328   0.00000
   9        3PZ         0.00000  -0.32369   0.00000   0.00000  -0.14880
  10        4XX         0.00000  -0.12208   0.00000  -0.93444  -1.82255
  11        4YY         0.00000  -0.12208   0.00000   0.93444  -1.82255
  12        4ZZ         0.00000  -0.85315   0.00000   0.00000  -1.26003
  13        4XY        -0.71119   0.00000   1.07900   0.00000   0.00000
  14        4XZ         0.62159   0.00000   0.74519   0.00000   0.00000
  15        4YZ         0.00000   0.00000   0.00000  -0.74519   0.00000
  16 2   H  1S          0.00000  -0.43143   0.00000  -1.09144   0.50519
  17        2S          0.00000  -0.46149   0.00000  -0.63324  -0.38315
  18        3PX         0.80760   0.00000  -0.02520   0.00000   0.00000
  19        3PY         0.00000   0.66939   0.00000   1.14984  -0.49756
  20        3PZ         0.00000  -0.26957   0.00000  -0.40615   0.25206
  21 3   H  1S         -0.03791  -0.43143  -0.94521   0.54572   0.50519
  22        2S         -0.22515  -0.46149  -0.54840   0.31662  -0.38315
  23        3PX         0.05138  -0.57970  -0.86868   0.48698   0.43090
  24        3PY        -0.43660  -0.33469  -0.48698   0.30636   0.24878
  25        3PZ         0.32724  -0.26957  -0.35173   0.20307   0.25206
  26 4   H  1S          0.03791  -0.43143   0.94521   0.54572   0.50519
  27        2S          0.22515  -0.46149   0.54840   0.31662  -0.38315
  28        3PX         0.05138   0.57970  -0.86868  -0.48698  -0.43090
  29        3PY         0.43660  -0.33469   0.48698   0.30636   0.24878
  30        3PZ        -0.32724  -0.26957   0.35173   0.20307   0.25206
     Density Matrix:
                           1         2         3         4         5
   1 1   N  1S          2.06133
   2        2S         -0.11783   0.38821
   3        2PX         0.00000   0.00000   0.46060
   4        2PY         0.00000   0.00000   0.00000   0.46060
   5        2PZ        -0.03866   0.07895   0.00000   0.00000   0.65694
   6        3S         -0.19774   0.42672   0.00000   0.00000   0.26292
   7        3PX         0.00000   0.00000   0.21785   0.00000   0.00000
   8        3PY         0.00000   0.00000   0.00000   0.21785   0.00000
   9        3PZ        -0.04541   0.09847   0.00000   0.00000   0.54438
  10        4XX        -0.01336  -0.00574   0.00000  -0.01203   0.00522
  11        4YY        -0.01336  -0.00574   0.00000   0.01203   0.00522
  12        4ZZ        -0.00675  -0.02047   0.00000   0.00000  -0.03484
  13        4XY         0.00000   0.00000  -0.01389   0.00000   0.00000
  14        4XZ         0.00000   0.00000  -0.02541   0.00000   0.00000
  15        4YZ         0.00000   0.00000   0.00000  -0.02541   0.00000
  16 2   H  1S         -0.05266   0.10846   0.00000   0.27348  -0.09179
  17        2S         -0.00155   0.00076   0.00000   0.19186  -0.06791
  18        3PX         0.00000   0.00000   0.01242   0.00000   0.00000
  19        3PY         0.00749  -0.01444   0.00000  -0.00739   0.00810
  20        3PZ        -0.00407   0.00832   0.00000   0.00597   0.01773
  21 3   H  1S         -0.05266   0.10846  -0.23684  -0.13674  -0.09179
  22        2S         -0.00155   0.00076  -0.16616  -0.09593  -0.06791
  23        3PX        -0.00649   0.01250  -0.00244  -0.00858  -0.00701
  24        3PY        -0.00375   0.00722  -0.00858   0.00747  -0.00405
  25        3PZ        -0.00407   0.00832  -0.00517  -0.00299   0.01773
  26 4   H  1S         -0.05266   0.10846   0.23684  -0.13674  -0.09179
  27        2S         -0.00155   0.00076   0.16616  -0.09593  -0.06791
  28        3PX         0.00649  -0.01250  -0.00244   0.00858   0.00701
  29        3PY        -0.00375   0.00722   0.00858   0.00747  -0.00405
  30        3PZ        -0.00407   0.00832   0.00517  -0.00299   0.01773
                           6         7         8         9        10
   6        3S          0.51950
   7        3PX         0.00000   0.10304
   8        3PY         0.00000   0.00000   0.10304
   9        3PZ         0.25245   0.00000   0.00000   0.45400
  10        4XX        -0.00408   0.00000  -0.00569   0.00380   0.00057
  11        4YY        -0.00408   0.00000   0.00569   0.00380  -0.00006
  12        4ZZ        -0.03050   0.00000   0.00000  -0.03027   0.00010
  13        4XY         0.00000  -0.00657   0.00000   0.00000   0.00000
  14        4XZ         0.00000  -0.01202   0.00000   0.00000   0.00000
  15        4YZ         0.00000   0.00000  -0.01202   0.00000   0.00066
  16 2   H  1S          0.08864   0.00000   0.12935  -0.06560  -0.00971
  17        2S         -0.01778   0.00000   0.09075  -0.05549  -0.00568
  18        3PX         0.00000   0.00588   0.00000   0.00000   0.00000
  19        3PY        -0.01294   0.00000  -0.00350   0.00536   0.00049
  20        3PZ         0.01359   0.00000   0.00283   0.01523  -0.00011
  21 3   H  1S          0.08864  -0.11202  -0.06467  -0.06560   0.00100
  22        2S         -0.01778  -0.07859  -0.04537  -0.05549   0.00184
  23        3PX         0.01121  -0.00115  -0.00406  -0.00464  -0.00003
  24        3PY         0.00647  -0.00406   0.00353  -0.00268  -0.00034
  25        3PZ         0.01359  -0.00245  -0.00141   0.01523   0.00012
  26 4   H  1S          0.08864   0.11202  -0.06467  -0.06560   0.00100
  27        2S         -0.01778   0.07859  -0.04537  -0.05549   0.00184
  28        3PX        -0.01121  -0.00115   0.00406   0.00464   0.00003
  29        3PY         0.00647   0.00406   0.00353  -0.00268  -0.00034
  30        3PZ         0.01359   0.00245  -0.00141   0.01523   0.00012
                          11        12        13        14        15
  11        4YY         0.00057
  12        4ZZ         0.00010   0.00264
  13        4XY         0.00000   0.00000   0.00042
  14        4XZ         0.00000   0.00000   0.00077   0.00140
  15        4YZ        -0.00066   0.00000   0.00000   0.00000   0.00140
  16 2   H  1S          0.00457  -0.00012   0.00000   0.00000  -0.01509
  17        2S          0.00434   0.00324   0.00000   0.00000  -0.01059
  18        3PX         0.00000   0.00000  -0.00037  -0.00069   0.00000
  19        3PY         0.00011   0.00021   0.00000   0.00000   0.00041
  20        3PZ         0.00020  -0.00120   0.00000   0.00000  -0.00033
  21 3   H  1S         -0.00614  -0.00012   0.00714   0.01307   0.00754
  22        2S         -0.00317   0.00324   0.00501   0.00917   0.00529
  23        3PX        -0.00048  -0.00018   0.00007   0.00013   0.00047
  24        3PY         0.00005  -0.00011   0.00026   0.00047  -0.00041
  25        3PZ        -0.00003  -0.00120   0.00016   0.00029   0.00016
  26 4   H  1S         -0.00614  -0.00012  -0.00714  -0.01307   0.00754
  27        2S         -0.00317   0.00324  -0.00501  -0.00917   0.00529
  28        3PX         0.00048   0.00018   0.00007   0.00013  -0.00047
  29        3PY         0.00005  -0.00011  -0.00026  -0.00047  -0.00041
  30        3PZ        -0.00003  -0.00120  -0.00016  -0.00029   0.00016
                          16        17        18        19        20
  16 2   H  1S          0.21315
  17        2S          0.12625   0.08716
  18        3PX         0.00000   0.00000   0.00034
  19        3PY        -0.01042  -0.00428   0.00000   0.00085
  20        3PZ         0.00304   0.00080   0.00000  -0.00013   0.00066
  21 3   H  1S         -0.03041  -0.04462  -0.00639  -0.00384  -0.00228
  22        2S         -0.04462  -0.03273  -0.00448   0.00034  -0.00293
  23        3PX         0.00013  -0.00253  -0.00007  -0.00050  -0.00008
  24        3PY         0.00745   0.00371  -0.00023  -0.00049   0.00011
  25        3PZ        -0.00228  -0.00293  -0.00014   0.00001   0.00054
  26 4   H  1S         -0.03041  -0.04462   0.00639  -0.00384  -0.00228
  27        2S         -0.04462  -0.03273   0.00448   0.00034  -0.00293
  28        3PX        -0.00013   0.00253  -0.00007   0.00050   0.00008
  29        3PY         0.00745   0.00371   0.00023  -0.00049   0.00011
  30        3PZ        -0.00228  -0.00293   0.00014   0.00001   0.00054
                          21        22        23        24        25
  21 3   H  1S          0.21315
  22        2S          0.12625   0.08716
  23        3PX         0.00902   0.00371   0.00072
  24        3PY         0.00521   0.00214   0.00022   0.00046
  25        3PZ         0.00304   0.00080   0.00011   0.00007   0.00066
  26 4   H  1S         -0.03041  -0.04462   0.00652  -0.00361  -0.00228
  27        2S         -0.04462  -0.03273   0.00195  -0.00405  -0.00293
  28        3PX        -0.00652  -0.00195  -0.00070  -0.00013  -0.00006
  29        3PY        -0.00361  -0.00405   0.00013   0.00014  -0.00013
  30        3PZ        -0.00228  -0.00293   0.00006  -0.00013   0.00054
                          26        27        28        29        30
  26 4   H  1S          0.21315
  27        2S          0.12625   0.08716
  28        3PX        -0.00902  -0.00371   0.00072
  29        3PY         0.00521   0.00214  -0.00022   0.00046
  30        3PZ         0.00304   0.00080  -0.00011   0.00007   0.00066
    Full Mulliken population analysis:
                           1         2         3         4         5
   1 1   N  1S          2.06133
   2        2S         -0.02618   0.38821
   3        2PX         0.00000   0.00000   0.46060
   4        2PY         0.00000   0.00000   0.00000   0.46060
   5        2PZ         0.00000   0.00000   0.00000   0.00000   0.65694
   6        3S         -0.03399   0.33093   0.00000   0.00000   0.00000
   7        3PX         0.00000   0.00000   0.11313   0.00000   0.00000
   8        3PY         0.00000   0.00000   0.00000   0.11313   0.00000
   9        3PZ         0.00000   0.00000   0.00000   0.00000   0.28269
  10        4XX        -0.00067  -0.00365   0.00000   0.00000   0.00000
  11        4YY        -0.00067  -0.00365   0.00000   0.00000   0.00000
  12        4ZZ        -0.00034  -0.01302   0.00000   0.00000   0.00000
  13        4XY         0.00000   0.00000   0.00000   0.00000   0.00000
  14        4XZ         0.00000   0.00000   0.00000   0.00000   0.00000
  15        4YZ         0.00000   0.00000   0.00000   0.00000   0.00000
  16 2   H  1S         -0.00193   0.02934   0.00000   0.08656   0.01027
  17        2S         -0.00013   0.00033   0.00000   0.03524   0.00441
  18        3PX         0.00000   0.00000   0.00195   0.00000   0.00000
  19        3PY        -0.00041   0.00452   0.00000   0.00243   0.00139
  20        3PZ        -0.00008   0.00092   0.00000   0.00103   0.00171
  21 3   H  1S         -0.00193   0.02934   0.06492   0.02164   0.01027
  22        2S         -0.00013   0.00033   0.02643   0.00881   0.00441
  23        3PX        -0.00031   0.00339   0.00051   0.00180   0.00104
  24        3PY        -0.00010   0.00113   0.00180   0.00026   0.00035
  25        3PZ        -0.00008   0.00092   0.00077   0.00026   0.00171
  26 4   H  1S         -0.00193   0.02934   0.06492   0.02164   0.01027
  27        2S         -0.00013   0.00033   0.02643   0.00881   0.00441
  28        3PX        -0.00031   0.00339   0.00051   0.00180   0.00104
  29        3PY        -0.00010   0.00113   0.00180   0.00026   0.00035
  30        3PZ        -0.00008   0.00092   0.00077   0.00026   0.00171
                           6         7         8         9        10
   6        3S          0.51950
   7        3PX         0.00000   0.10304
   8        3PY         0.00000   0.00000   0.10304
   9        3PZ         0.00000   0.00000   0.00000   0.45400
  10        4XX        -0.00273   0.00000   0.00000   0.00000   0.00057
  11        4YY        -0.00273   0.00000   0.00000   0.00000  -0.00002
  12        4ZZ        -0.02044   0.00000   0.00000   0.00000   0.00003
  13        4XY         0.00000   0.00000   0.00000   0.00000   0.00000
  14        4XZ         0.00000   0.00000   0.00000   0.00000   0.00000
  15        4YZ         0.00000   0.00000   0.00000   0.00000   0.00000
  16 2   H  1S          0.03672   0.00000   0.06772   0.01214  -0.00146
  17        2S         -0.01264   0.00000   0.04574   0.00989  -0.00218
  18        3PX         0.00000   0.00145   0.00000   0.00000   0.00000
  19        3PY         0.00262   0.00000   0.00011   0.00053  -0.00007
  20        3PZ         0.00097   0.00000   0.00028   0.00322  -0.00001
  21 3   H  1S          0.03672   0.05079   0.01693   0.01214   0.00040
  22        2S         -0.01264   0.03430   0.01143   0.00989   0.00080
  23        3PX         0.00196  -0.00004   0.00049   0.00040  -0.00001
  24        3PY         0.00065   0.00049   0.00063   0.00013  -0.00010
  25        3PZ         0.00097   0.00021   0.00007   0.00322   0.00003
  26 4   H  1S          0.03672   0.05079   0.01693   0.01214   0.00040
  27        2S         -0.01264   0.03430   0.01143   0.00989   0.00080
  28        3PX         0.00196  -0.00004   0.00049   0.00040  -0.00001
  29        3PY         0.00065   0.00049   0.00063   0.00013  -0.00010
  30        3PZ         0.00097   0.00021   0.00007   0.00322   0.00003
                          11        12        13        14        15
  11        4YY         0.00057
  12        4ZZ         0.00003   0.00264
  13        4XY         0.00000   0.00000   0.00042
  14        4XZ         0.00000   0.00000   0.00000   0.00140
  15        4YZ         0.00000   0.00000   0.00000   0.00000   0.00140
  16 2   H  1S          0.00221  -0.00002   0.00000   0.00000   0.00308
  17        2S          0.00196   0.00127   0.00000   0.00000   0.00043
  18        3PX         0.00000   0.00000  -0.00013   0.00008   0.00000
  19        3PY        -0.00003  -0.00005   0.00000   0.00000   0.00010
  20        3PZ         0.00005   0.00008   0.00000   0.00000  -0.00007
  21 3   H  1S         -0.00143  -0.00002   0.00179   0.00231   0.00077
  22        2S         -0.00127   0.00127   0.00025   0.00032   0.00011
  23        3PX        -0.00012  -0.00003   0.00002   0.00002   0.00007
  24        3PY         0.00000  -0.00001  -0.00002   0.00007   0.00001
  25        3PZ         0.00000   0.00008   0.00002  -0.00005  -0.00002
  26 4   H  1S         -0.00143  -0.00002   0.00179   0.00231   0.00077
  27        2S         -0.00127   0.00127   0.00025   0.00032   0.00011
  28        3PX        -0.00012  -0.00003   0.00002   0.00002   0.00007
  29        3PY         0.00000  -0.00001  -0.00002   0.00007   0.00001
  30        3PZ         0.00000   0.00008   0.00002  -0.00005  -0.00002
                          16        17        18        19        20
  16 2   H  1S          0.21315
  17        2S          0.08311   0.08716
  18        3PX         0.00000   0.00000   0.00034
  19        3PY         0.00000   0.00000   0.00000   0.00085
  20        3PZ         0.00000   0.00000   0.00000   0.00000   0.00066
  21 3   H  1S         -0.00101  -0.00842   0.00013   0.00013   0.00000
  22        2S         -0.00842  -0.01519   0.00027  -0.00003   0.00000
  23        3PX         0.00000  -0.00015   0.00000   0.00001   0.00000
  24        3PY         0.00025   0.00038   0.00001   0.00002   0.00000
  25        3PZ         0.00000   0.00000   0.00000   0.00000   0.00000
  26 4   H  1S         -0.00101  -0.00842   0.00013   0.00013   0.00000
  27        2S         -0.00842  -0.01519   0.00027  -0.00003   0.00000
  28        3PX         0.00000  -0.00015   0.00000   0.00001   0.00000
  29        3PY         0.00025   0.00038   0.00001   0.00002   0.00000
  30        3PZ         0.00000   0.00000   0.00000   0.00000   0.00000
                          21        22        23        24        25
  21 3   H  1S          0.21315
  22        2S          0.08311   0.08716
  23        3PX         0.00000   0.00000   0.00072
  24        3PY         0.00000   0.00000   0.00000   0.00046
  25        3PZ         0.00000   0.00000   0.00000   0.00000   0.00066
  26 4   H  1S         -0.00101  -0.00842   0.00026   0.00000   0.00000
  27        2S         -0.00842  -0.01519   0.00023   0.00000   0.00000
  28        3PX         0.00026   0.00023   0.00004   0.00000   0.00000
  29        3PY         0.00000   0.00000   0.00000   0.00000   0.00000
  30        3PZ         0.00000   0.00000   0.00000   0.00000   0.00000
                          26        27        28        29        30
  26 4   H  1S          0.21315
  27        2S          0.08311   0.08716
  28        3PX         0.00000   0.00000   0.00072
  29        3PY         0.00000   0.00000   0.00000   0.00046
  30        3PZ         0.00000   0.00000   0.00000   0.00000   0.00066
     Gross orbital populations:
                           1
   1 1   N  1S          1.99184
   2        2S          0.77795
   3        2PX         0.76453
   4        2PY         0.76453
   5        2PZ         0.99296
   6        3S          0.87352
   7        3PX         0.38911
   8        3PY         0.38911
   9        3PZ         0.81404
  10        4XX        -0.00795
  11        4YY        -0.00795
  12        4ZZ        -0.02726
  13        4XY         0.00440
  14        4XZ         0.00683
  15        4YZ         0.00683
  16 2   H  1S          0.52253
  17        2S          0.20783
  18        3PX         0.00448
  19        3PY         0.01224
  20        3PZ         0.00876
  21 3   H  1S          0.52253
  22        2S          0.20783
  23        3PX         0.01030
  24        3PY         0.00642
  25        3PZ         0.00876
  26 4   H  1S          0.52253
  27        2S          0.20783
  28        3PX         0.01030
  29        3PY         0.00642
  30        3PZ         0.00876
          Condensed to atoms (all electrons):
               1          2          3          4
     1  N    6.677946   0.351508   0.351508   0.351508
     2  H    0.351508   0.468368  -0.032016  -0.032016
     3  H    0.351508  -0.032016   0.468368  -0.032016
     4  H    0.351508  -0.032016  -0.032016   0.468368
 Mulliken charges:
               1
     1  N   -0.732469
     2  H    0.244156
     3  H    0.244156
     4  H    0.244156
 Sum of Mulliken charges =   0.00000
 Mulliken charges with hydrogens summed into heavy atoms:
               1
     1  N    0.000000
 Electronic spatial extent (au):  <R**2>=             25.7940
 Charge=              0.0000 electrons
 Dipole moment (field-independent basis, Debye):
    X=              0.0000    Y=              0.0000    Z=             -1.6447  Tot=              1.6447
 Quadrupole moment (field-independent basis, Debye-Ang):
   XX=             -5.9781   YY=             -5.9781   ZZ=             -8.8083
   XY=              0.0000   XZ=              0.0000   YZ=              0.0000
 Traceless Quadrupole moment (field-independent basis, Debye-Ang):
   XX=              0.9434   YY=              0.9434   ZZ=             -1.8868
   XY=              0.0000   XZ=              0.0000   YZ=              0.0000
 Octapole moment (field-independent basis, Debye-Ang**2):
  XXX=              0.0000  YYY=              0.8292  ZZZ=             -1.4591  XYY=              0.0000
  XXY=             -0.8292  XXZ=             -0.7682  XZZ=              0.0000  YZZ=              0.0000
  YYZ=             -0.7682  XYZ=              0.0000
 Hexadecapole moment (field-independent basis, Debye-Ang**3):
 XXXX=             -9.3201 YYYY=             -9.3201 ZZZZ=             -9.3093 XXXY=              0.0000
 XXXZ=              0.0000 YYYX=              0.0000 YYYZ=             -0.2765 ZZZX=              0.0000
 ZZZY=              0.0000 XXYY=             -3.1067 XXZZ=             -3.2148 YYZZ=             -3.2148
 XXYZ=              0.2765 YYXZ=              0.0000 ZZXY=              0.0000
 N-N= 1.208488277603D+01 E-N=-1.560985934506D+02  KE= 5.610338292530D+01
 Symmetry A'   KE= 5.345703431064D+01
 Symmetry A"   KE= 2.646348614663D+00
 Orbital energies and kinetic energies (alpha):
                                 1                 2
   1         (A1)--O         -14.296929         21.959019
   2         (A1)--O          -0.843751          1.829392
   3         (E)--O           -0.458704          1.323174
   4         (E)--O           -0.458704          1.323174
   5         (A1)--O          -0.242938          1.616932
   6         (A1)--V           0.086374          1.023429
   7         (E)--V            0.176879          1.023753
   8         (E)--V            0.176879          1.023753
   9         (E)--V            0.684444          1.659692
  10         (E)--V            0.684444          1.659692
  11         (A1)--V           0.716491          2.717183
  12         (A1)--V           0.874508          2.526585
  13         (E)--V            0.888267          2.917013
  14         (E)--V            0.888267          2.917013
  15         (A1)--V           1.114176          2.072682
  16         (E)--V            1.432134          2.431233
  17         (E)--V            1.432134          2.431233
  18         (A1)--V           1.900501          2.947845
  19         (A2)--V           2.083789          2.915823
  20         (E)--V            2.220447          3.229441
  21         (E)--V            2.220447          3.229441
  22         (E)--V            2.427178          3.475941
  23         (E)--V            2.427178          3.475941
  24         (A1)--V           2.727329          3.660115
  25         (E)--V            3.011369          3.992536
  26         (E)--V            3.011369          3.992536
  27         (A1)--V           3.269871          5.991647
  28         (E)--V            3.440466          5.485064
  29         (E)--V            3.440466          5.485064
  30         (A1)--V           3.943525          8.677579
 Total kinetic energy from orbitals= 5.610338292530D+01
 ******************************Gaussian NBO Version 3.1******************************
             N A T U R A L   A T O M I C   O R B I T A L   A N D
          N A T U R A L   B O N D   O R B I T A L   A N A L Y S I S
 ******************************Gaussian NBO Version 3.1******************************
       /RESON  / : Allow strongly delocalized NBO set

 Analyzing the SCF density

 Job title: Title Card Required                                             

 Storage needed:      2904 in NPA,      3721 in NBO ( 805306256 available)


 NATURAL POPULATIONS:  Natural atomic orbital occupancies 
                                                          
   NAO  Atom  No  lang   Type(AO)    Occupancy      Energy
 ----------------------------------------------------------
     1    N    1  S      Cor( 1S)     1.99981     -14.15881
     2    N    1  S      Val( 2S)     1.49012      -0.55578
     3    N    1  S      Ryd( 3S)     0.00035       1.18834
     4    N    1  S      Ryd( 4S)     0.00000       3.74439
     5    N    1  px     Val( 2p)     1.37624      -0.15573
     6    N    1  px     Ryd( 3p)     0.00179       0.77777
     7    N    1  py     Val( 2p)     1.37624      -0.15573
     8    N    1  py     Ryd( 3p)     0.00179       0.77777
     9    N    1  pz     Val( 2p)     1.87546      -0.21248
    10    N    1  pz     Ryd( 3p)     0.00583       0.72904
    11    N    1  dxy    Ryd( 3d)     0.00019       2.50383
    12    N    1  dxz    Ryd( 3d)     0.00129       2.23317
    13    N    1  dyz    Ryd( 3d)     0.00129       2.23317
    14    N    1  dx2y2  Ryd( 3d)     0.00019       2.50383
    15    N    1  dz2    Ryd( 3d)     0.00164       2.14811

    16    H    2  S      Val( 1S)     0.62045       0.16039
    17    H    2  S      Ryd( 2S)     0.00071       0.55950
    18    H    2  px     Ryd( 2p)     0.00028       2.35152
    19    H    2  py     Ryd( 2p)     0.00052       3.00069
    20    H    2  pz     Ryd( 2p)     0.00064       2.38691

    21    H    3  S      Val( 1S)     0.62045       0.16039
    22    H    3  S      Ryd( 2S)     0.00071       0.55950
    23    H    3  px     Ryd( 2p)     0.00046       2.83839
    24    H    3  py     Ryd( 2p)     0.00034       2.51381
    25    H    3  pz     Ryd( 2p)     0.00064       2.38691

    26    H    4  S      Val( 1S)     0.62045       0.16039
    27    H    4  S      Ryd( 2S)     0.00071       0.55950
    28    H    4  px     Ryd( 2p)     0.00046       2.83839
    29    H    4  py     Ryd( 2p)     0.00034       2.51381
    30    H    4  pz     Ryd( 2p)     0.00064       2.38691


 Summary of Natural Population Analysis:                  
                                                          
                                       Natural Population 
                Natural  -----------------------------------------------
    Atom  No    Charge         Core      Valence    Rydberg      Total
 -----------------------------------------------------------------------
      N    1   -1.13220      1.99981     6.11805    0.01434     8.13220
      H    2    0.37740      0.00000     0.62045    0.00214     0.62260
      H    3    0.37740      0.00000     0.62045    0.00214     0.62260
      H    4    0.37740      0.00000     0.62045    0.00214     0.62260
 =======================================================================
   * Total *    0.00000      1.99981     7.97941    0.02078    10.00000

                                 Natural Population      
 --------------------------------------------------------
   Core                       1.99981 ( 99.9907% of   2)
   Valence                    7.97941 ( 99.7426% of   8)
   Natural Minimal Basis      9.97922 ( 99.7922% of  10)
   Natural Rydberg Basis      0.02078 (  0.2078% of  10)
 --------------------------------------------------------

    Atom  No          Natural Electron Configuration
 ----------------------------------------------------------------------------
      N    1      [core]2S( 1.49)2p( 4.63)3p( 0.01)
      H    2            1S( 0.62)
      H    3            1S( 0.62)
      H    4            1S( 0.62)


 NATURAL BOND ORBITAL ANALYSIS:

                       Occupancies       Lewis Structure    Low   High
           Occ.    -------------------  -----------------   occ   occ
  Cycle   Thresh.   Lewis   Non-Lewis     CR  BD  3C  LP    (L)   (NL)   Dev
 =============================================================================
   1(1)    1.90     9.99513   0.00487      1   3   0   1     0      0    0.00
 -----------------------------------------------------------------------------

 Structure accepted: No low occupancy Lewis orbitals

 --------------------------------------------------------
   Core                      1.99981 ( 99.991% of   2)
   Valence Lewis             7.99532 ( 99.941% of   8)
  ==================       ============================
   Total Lewis               9.99513 ( 99.951% of  10)
  -----------------------------------------------------
   Valence non-Lewis         0.00001 (  0.000% of  10)
   Rydberg non-Lewis         0.00486 (  0.049% of  10)
  ==================       ============================
   Total non-Lewis           0.00487 (  0.049% of  10)
 --------------------------------------------------------


       (Occupancy)   Bond orbital/ Coefficients/ Hybrids
 ---------------------------------------------------------------------------------
     1. (1.99925) BD ( 1) N   1 - H   2  
                ( 68.94%)   0.8303* N   1 s( 27.14%)p 2.68( 72.79%)d 0.00(  0.07%)
                                            0.0001  0.5209  0.0046  0.0000  0.0000
                                            0.0000  0.8155  0.0294 -0.2489  0.0021
                                            0.0000  0.0000 -0.0250 -0.0095 -0.0021
                ( 31.06%)   0.5573* H   2 s( 99.92%)p 0.00(  0.08%)
                                            0.9996  0.0001  0.0000 -0.0285  0.0056
     2. (1.99925) BD ( 1) N   1 - H   3  
                ( 68.94%)   0.8303* N   1 s( 27.14%)p 2.68( 72.79%)d 0.00(  0.07%)
                                            0.0001  0.5209  0.0046  0.0000 -0.7063
                                           -0.0254 -0.4078 -0.0147 -0.2489  0.0021
                                            0.0082  0.0216  0.0125  0.0047 -0.0021
                ( 31.06%)   0.5573* H   3 s( 99.92%)p 0.00(  0.08%)
                                            0.9996  0.0001  0.0247  0.0143  0.0056
     3. (1.99925) BD ( 1) N   1 - H   4  
                ( 68.94%)   0.8303* N   1 s( 27.14%)p 2.68( 72.79%)d 0.00(  0.07%)
                                            0.0001  0.5209  0.0046  0.0000  0.7063
                                            0.0254 -0.4078 -0.0147 -0.2489  0.0021
                                           -0.0082 -0.0216  0.0125  0.0047 -0.0021
                ( 31.06%)   0.5573* H   4 s( 99.92%)p 0.00(  0.08%)
                                            0.9996  0.0001 -0.0247  0.0143  0.0056
     4. (1.99981) CR ( 1) N   1           s(100.00%)
                                            1.0000 -0.0001  0.0000  0.0000  0.0000
                                            0.0000  0.0000  0.0000  0.0000  0.0000
                                            0.0000  0.0000  0.0000  0.0000  0.0000
     5. (1.99756) LP ( 1) N   1           s( 18.55%)p 4.39( 81.37%)d 0.00(  0.08%)
                                            0.0001  0.4305 -0.0115  0.0000  0.0000
                                            0.0000  0.0000  0.0000  0.9004 -0.0539
                                            0.0000  0.0000  0.0000  0.0000 -0.0285
     6. (0.00000) RY*( 1) N   1           s( 99.98%)p 0.00(  0.02%)d 0.00(  0.00%)
     7. (0.00000) RY*( 2) N   1           s(100.00%)
     8. (0.00000) RY*( 3) N   1           s(  0.00%)p 1.00(100.00%)d 0.00(  0.00%)
     9. (0.00000) RY*( 4) N   1           s(  0.00%)p 1.00(100.00%)d 0.00(  0.00%)
    10. (0.00000) RY*( 5) N   1           s(  0.04%)p99.99( 99.96%)d 0.01(  0.00%)
    11. (0.00000) RY*( 6) N   1           s(  0.00%)p 1.00(  0.01%)d99.99( 99.99%)
    12. (0.00000) RY*( 7) N   1           s(  0.00%)p 1.00(  0.09%)d99.99( 99.91%)
    13. (0.00000) RY*( 8) N   1           s(  0.00%)p 1.00(  0.09%)d99.99( 99.91%)
    14. (0.00000) RY*( 9) N   1           s(  0.00%)p 1.00(  0.01%)d99.99( 99.99%)
    15. (0.00000) RY*(10) N   1           s(  0.02%)p 2.40(  0.06%)d99.99( 99.92%)
    16. (0.00093) RY*( 1) H   2           s( 58.43%)p 0.71( 41.57%)
                                            0.0039  0.7644  0.0000  0.0109 -0.6446
    17. (0.00041) RY*( 2) H   2           s( 40.47%)p 1.47( 59.53%)
                                            0.0000  0.6362  0.0000  0.1495  0.7569
    18. (0.00028) RY*( 3) H   2           s(  0.00%)p 1.00(100.00%)
                                            0.0000  0.0000  1.0000  0.0000  0.0000
    19. (0.00000) RY*( 4) H   2           s(  1.18%)p83.82( 98.82%)
    20. (0.00093) RY*( 1) H   3           s( 58.43%)p 0.71( 41.57%)
                                            0.0039  0.7644 -0.0094 -0.0054 -0.6446
    21. (0.00041) RY*( 2) H   3           s( 40.47%)p 1.47( 59.53%)
                                            0.0000  0.6362 -0.1295 -0.0748  0.7569
    22. (0.00028) RY*( 3) H   3           s(  0.00%)p 1.00(100.00%)
                                            0.0000  0.0000 -0.5000  0.8660  0.0000
    23. (0.00000) RY*( 4) H   3           s(  1.18%)p83.82( 98.82%)
    24. (0.00093) RY*( 1) H   4           s( 58.43%)p 0.71( 41.57%)
                                            0.0039  0.7644  0.0094 -0.0054 -0.6446
    25. (0.00041) RY*( 2) H   4           s( 40.47%)p 1.47( 59.53%)
                                            0.0000  0.6362  0.1295 -0.0748  0.7569
    26. (0.00028) RY*( 3) H   4           s(  0.00%)p 1.00(100.00%)
                                            0.0000  0.0000  0.5000  0.8660  0.0000
    27. (0.00000) RY*( 4) H   4           s(  1.18%)p83.82( 98.82%)
    28. (0.00000) BD*( 1) N   1 - H   2  
                ( 31.06%)   0.5573* N   1 s( 27.14%)p 2.68( 72.79%)d 0.00(  0.07%)
                ( 68.94%)  -0.8303* H   2 s( 99.92%)p 0.00(  0.08%)
    29. (0.00000) BD*( 1) N   1 - H   3  
                ( 31.06%)   0.5573* N   1 s( 27.14%)p 2.68( 72.79%)d 0.00(  0.07%)
                ( 68.94%)  -0.8303* H   3 s( 99.92%)p 0.00(  0.08%)
    30. (0.00000) BD*( 1) N   1 - H   4  
                ( 31.06%)   0.5573* N   1 s( 27.14%)p 2.68( 72.79%)d 0.00(  0.07%)
                ( 68.94%)  -0.8303* H   4 s( 99.92%)p 0.00(  0.08%)


 NHO Directionality and "Bond Bending" (deviations from line of nuclear centers)

         [Thresholds for printing:  angular deviation  >  1.0 degree]
                                    hybrid p-character > 25.0%
                                    orbital occupancy  >  0.10e

                                Line of Centers        Hybrid 1              Hybrid 2
                                ---------------  -------------------   ------------------
                NBO               Theta   Phi    Theta   Phi    Dev    Theta   Phi    Dev
 ========================================================================================
     1. BD (   1) N   1 - H   2   109.5   90.0   106.3   90.0   3.2      --     --    --
     2. BD (   1) N   1 - H   3   109.5  210.0   106.3  210.0   3.2      --     --    --
     3. BD (   1) N   1 - H   4   109.5  330.0   106.3  330.0   3.2      --     --    --
     5. LP (   1) N   1             --     --      0.0    0.0   --       --     --    --


 Second Order Perturbation Theory Analysis of Fock Matrix in NBO Basis

     Threshold for printing:   0.50 kcal/mol
                                                                              E(2)  E(j)-E(i) F(i,j)
         Donor NBO (i)                     Acceptor NBO (j)                 kcal/mol   a.u.    a.u. 
 ===================================================================================================

 within unit  1
   5. LP (   1) N   1                / 16. RY*(   1) H   2                    1.03    1.65    0.037
   5. LP (   1) N   1                / 17. RY*(   2) H   2                    0.64    1.88    0.031
   5. LP (   1) N   1                / 20. RY*(   1) H   3                    1.03    1.65    0.037
   5. LP (   1) N   1                / 21. RY*(   2) H   3                    0.64    1.88    0.031
   5. LP (   1) N   1                / 24. RY*(   1) H   4                    1.03    1.65    0.037
   5. LP (   1) N   1                / 25. RY*(   2) H   4                    0.64    1.88    0.031


 Natural Bond Orbitals (Summary):

                                                            Principal Delocalizations
           NBO                        Occupancy    Energy   (geminal,vicinal,remote)
 ====================================================================================
 Molecular unit  1  (H3N)
     1. BD (   1) N   1 - H   2          1.99925    -0.61648   
     2. BD (   1) N   1 - H   3          1.99925    -0.61648   
     3. BD (   1) N   1 - H   4          1.99925    -0.61648   
     4. CR (   1) N   1                  1.99981   -14.15847   
     5. LP (   1) N   1                  1.99756    -0.28730  16(v),20(v),24(v),17(v)
                                                    21(v),25(v)
     6. RY*(   1) N   1                  0.00000     1.18800   
     7. RY*(   2) N   1                  0.00000     3.74439   
     8. RY*(   3) N   1                  0.00000     0.77521   
     9. RY*(   4) N   1                  0.00000     0.77521   
    10. RY*(   5) N   1                  0.00000     0.73189   
    11. RY*(   6) N   1                  0.00000     2.50136   
    12. RY*(   7) N   1                  0.00000     2.23005   
    13. RY*(   8) N   1                  0.00000     2.22985   
    14. RY*(   9) N   1                  0.00000     2.50156   
    15. RY*(  10) N   1                  0.00000     2.14854   
    16. RY*(   1) H   2                  0.00093     1.36323   
    17. RY*(   2) H   2                  0.00041     1.59346   
    18. RY*(   3) H   2                  0.00028     2.35152   
    19. RY*(   4) H   2                  0.00000     2.98142   
    20. RY*(   1) H   3                  0.00093     1.36323   
    21. RY*(   2) H   3                  0.00041     1.59346   
    22. RY*(   3) H   3                  0.00028     2.35152   
    23. RY*(   4) H   3                  0.00000     2.98142   
    24. RY*(   1) H   4                  0.00093     1.36323   
    25. RY*(   2) H   4                  0.00041     1.59346   
    26. RY*(   3) H   4                  0.00028     2.35152   
    27. RY*(   4) H   4                  0.00000     2.98142   
    28. BD*(   1) N   1 - H   2          0.00000     0.52605   
    29. BD*(   1) N   1 - H   3          0.00000     0.52605   
    30. BD*(   1) N   1 - H   4          0.00000     0.52605   
       -------------------------------
              Total Lewis    9.99513  ( 99.9513%)
        Valence non-Lewis    0.00001  (  0.0001%)
        Rydberg non-Lewis    0.00486  (  0.0486%)
       -------------------------------
            Total unit  1   10.00000  (100.0000%)
           Charge unit  1    0.00000
 Calling FoFJK, ICntrl=      2127 FMM=F ISym2X=1 I1Cent= 0 IOpClX= 0 NMat=1 NMatS=1 NMatT=0.
 ***** Axes restored to original set *****
 -------------------------------------------------------------------
 Center     Atomic                   Forces (Hartrees/Bohr)
 Number     Number              X              Y              Z
 -------------------------------------------------------------------
      1        7           0.000000000    0.000000000   -0.019938036
      2        1           0.000000000   -0.010145726    0.006646012
      3        1          -0.008786456    0.005072863    0.006646012
      4        1           0.008786456    0.005072863    0.006646012
 -------------------------------------------------------------------
 Cartesian Forces:  Max     0.019938036 RMS     0.008360826

 GradGradGradGradGradGradGradGradGradGradGradGradGradGradGradGradGradGrad
 Berny optimization.
 FormGI is forming the generalized inverse of G from B-inverse, IUseBI=4.
 Internal  Forces:  Max     0.011780819 RMS     0.008023493
 Search for a local minimum.
 Step number   1 out of a maximum of   20
 All quantities printed in internal units (Hartrees-Bohrs-Radians)
 Mixed Optimization -- RFO/linear search
 Second derivative matrix not updated -- first step.
 The second derivative matrix:
                          R1        R2        R3        A1        A2
           R1           0.47688
           R2           0.00000   0.47688
           R3           0.00000   0.00000   0.47688
           A1           0.00000   0.00000   0.00000   0.16000
           A2           0.00000   0.00000   0.00000   0.00000   0.16000
           A3           0.00000   0.00000   0.00000   0.00000   0.00000
           D1           0.00000   0.00000   0.00000   0.00000   0.00000
                          A3        D1
           A3           0.16000
           D1           0.00000   0.01028
 ITU=  0
     Eigenvalues ---    0.05635   0.16000   0.16000   0.47688   0.47688
     Eigenvalues ---    0.47688
 RFO step:  Lambda=-1.35432547D-03 EMin= 5.63503306D-02
 Linear search not attempted -- first point.
 Iteration  1 RMS(Cart)=  0.02018883 RMS(Int)=  0.00124233
 Iteration  2 RMS(Cart)=  0.00078107 RMS(Int)=  0.00088212
 Iteration  3 RMS(Cart)=  0.00000081 RMS(Int)=  0.00088212
 ClnCor:  largest displacement from symmetrization is 1.14D-03 for atom     4.
 Variable       Old X    -DE/DX   Delta X   Delta X   Delta X     New X
                                 (Linear)    (Quad)   (Total)
    R1        1.88973   0.01178   0.00000   0.02463   0.02495   1.91468
    R2        1.88973   0.01178   0.00000   0.02463   0.02495   1.91468
    R3        1.88973   0.01178   0.00000   0.02463   0.02495   1.91468
    A1        1.91063  -0.00042   0.00000  -0.02749  -0.03047   1.88016
    A2        1.91063  -0.00293   0.00000  -0.03063  -0.03047   1.88016
    A3        1.91063  -0.00293   0.00000  -0.03063  -0.03047   1.88016
    D1       -2.09440   0.00411   0.00000   0.07118   0.07054  -2.02386
         Item               Value     Threshold  Converged?
 Maximum Force            0.011781     0.000450     NO 
 RMS     Force            0.008023     0.000300     NO 
 Maximum Displacement     0.046112     0.001800     NO 
 RMS     Displacement     0.020258     0.001200     NO 
 Predicted change in Energy=-6.694336D-04
 GradGradGradGradGradGradGradGradGradGradGradGradGradGradGradGradGradGrad

                          Input orientation:                          
 ---------------------------------------------------------------------
 Center     Atomic      Atomic             Coordinates (Angstroms)
 Number     Number       Type             X           Y           Z
 ---------------------------------------------------------------------
      1          7           0        0.000000    0.000000   -0.124401
      2          1           0        0.000000   -0.944856    0.241426
      3          1           0       -0.818270    0.472428    0.241426
      4          1           0        0.818270    0.472428    0.241426
 ---------------------------------------------------------------------
                    Distance matrix (angstroms):
                    1          2          3          4
     1  N    0.000000
     2  H    1.013204   0.000000
     3  H    1.013204   1.636539   0.000000
     4  H    1.013204   1.636539   1.636539   0.000000
 Stoichiometry    H3N
 Framework group  C3V[C3(N),3SGV(H)]
 Deg. of freedom     2
 Full point group                 C3V     NOp   6
 Largest Abelian subgroup         CS      NOp   2
 Largest concise Abelian subgroup CS      NOp   2
                         Standard orientation:                         
 ---------------------------------------------------------------------
 Center     Atomic      Atomic             Coordinates (Angstroms)
 Number     Number       Type             X           Y           Z
 ---------------------------------------------------------------------
      1          7           0        0.000000    0.000000    0.109748
      2          1           0        0.000000    0.944856   -0.256079
      3          1           0       -0.818270   -0.472428   -0.256079
      4          1           0        0.818270   -0.472428   -0.256079
 ---------------------------------------------------------------------
 Rotational constants (GHZ):    300.3939780    300.3939780    187.2316177
 Standard basis: 6-31G(d,p) (6D, 7F)
 There are    20 symmetry adapted cartesian basis functions of A'  symmetry.
 There are    10 symmetry adapted cartesian basis functions of A"  symmetry.
 There are    20 symmetry adapted basis functions of A'  symmetry.
 There are    10 symmetry adapted basis functions of A"  symmetry.
    30 basis functions,    49 primitive gaussians,    30 cartesian basis functions
     5 alpha electrons        5 beta electrons
       nuclear repulsion energy        11.9379516643 Hartrees.
 NAtoms=    4 NActive=    4 NUniq=    2 SFac= 4.00D+00 NAtFMM=   60 NAOKFM=F Big=F
 Integral buffers will be    131072 words long.
 Raffenetti 2 integral format.
 Two-electron integral symmetry is turned on.
 One-electron integrals computed using PRISM.
 NBasis=    30 RedAO= T EigKep=  2.86D-02  NBF=    20    10
 NBsUse=    30 1.00D-06 EigRej= -1.00D+00 NBFU=    20    10
 Initial guess from the checkpoint file:  "\\icnas1.cc.ic.ac.uk\hc2616\WORK\Student Shapers\calculations\nh3\nh3.chk"
 B after Tr=     0.000000    0.000000    0.000000
         Rot=    1.000000    0.000000    0.000000    0.000000 Ang=   0.00 deg.
 Initial guess orbital symmetries:
       Occupied  (A1) (A1) (E) (E) (A1)
       Virtual   (?A) (?A) (?A) (?A) (?A) (?A) (?A) (?A) (?A) (?A)
                 (?A) (?A) (?A) (?A) (?A) (?A) (?A) (?A) (?A) (?A)
                 (?A) (?A) (?A) (?A) (?A)
 ExpMin= 1.61D-01 ExpMax= 4.17D+03 ExpMxC= 6.27D+02 IAcc=2 IRadAn=         4 AccDes= 0.00D+00
 Harris functional with IExCor=  402 and IRadAn=       4 diagonalized for initial guess.
 HarFok:  IExCor=  402 AccDes= 0.00D+00 IRadAn=         4 IDoV= 1 UseB2=F ITyADJ=14
 ICtDFT=  3500011 ScaDFX=  1.000000  1.000000  1.000000  1.000000
 FoFCou: FMM=F IPFlag=           0 FMFlag=      100000 FMFlg1=           0
         NFxFlg=           0 DoJE=T BraDBF=F KetDBF=T FulRan=T
         wScrn=  0.000000 ICntrl=     500 IOpCl=  0 I1Cent=   200000004 NGrid=           0
         NMat0=    1 NMatS0=      1 NMatT0=    0 NMatD0=    1 NMtDS0=    0 NMtDT0=    0
 Petite list used in FoFCou.
 Keep R1 ints in memory in symmetry-blocked form, NReq=993845.
 Requested convergence on RMS density matrix=1.00D-08 within 128 cycles.
 Requested convergence on MAX density matrix=1.00D-06.
 Requested convergence on             energy=1.00D-06.
 No special actions if energy rises.
 Integral accuracy reduced to 1.0D-05 until final iterations.
 Initial convergence to 1.0D-05 achieved.  Increase integral accuracy.
 SCF Done:  E(RB3LYP) =  -56.5575578883     A.U. after    9 cycles
            NFock=  9  Conv=0.26D-08     -V/T= 2.0090
 Calling FoFJK, ICntrl=      2127 FMM=F ISym2X=1 I1Cent= 0 IOpClX= 0 NMat=1 NMatS=1 NMatT=0.
 ***** Axes restored to original set *****
 -------------------------------------------------------------------
 Center     Atomic                   Forces (Hartrees/Bohr)
 Number     Number              X              Y              Z
 -------------------------------------------------------------------
      1        7           0.000000000    0.000000000   -0.007511304
      2        1           0.000000000   -0.000997928    0.002503768
      3        1          -0.000864231    0.000498964    0.002503768
      4        1           0.000864231    0.000498964    0.002503768
 -------------------------------------------------------------------
 Cartesian Forces:  Max     0.007511304 RMS     0.002553002

 GradGradGradGradGradGradGradGradGradGradGradGradGradGradGradGradGradGrad
 Berny optimization.
 Using GEDIIS/GDIIS optimizer.
 FormGI is forming the generalized inverse of G from B-inverse, IUseBI=4.
 Internal  Forces:  Max     0.002705304 RMS     0.001967862
 Search for a local minimum.
 Step number   2 out of a maximum of   20
 All quantities printed in internal units (Hartrees-Bohrs-Radians)
 Mixed Optimization -- RFO/linear search
 Update second derivatives using D2CorX and points    1    2
 DE= -9.17D-04 DEPred=-6.69D-04 R= 1.37D+00
 TightC=F SS=  1.41D+00  RLast= 9.81D-02 DXNew= 5.0454D-01 2.9438D-01
 Trust test= 1.37D+00 RLast= 9.81D-02 DXMaxT set to 3.00D-01
 The second derivative matrix:
                          R1        R2        R3        A1        A2
           R1           0.48603
           R2           0.00915   0.48603
           R3           0.00915   0.00915   0.48603
           A1           0.04166   0.04166   0.04166   0.14287
           A2           0.03340   0.03340   0.03340  -0.01712   0.14351
           A3           0.03340   0.03340   0.03340  -0.01712  -0.01649
           D1           0.00946   0.00946   0.00946   0.00253   0.00136
                          A3        D1
           A3           0.14351
           D1           0.00136   0.01211
 ITU=  1  0
 Use linear search instead of GDIIS.
     Eigenvalues ---    0.03863   0.15225   0.16000   0.47688   0.47688
     Eigenvalues ---    0.51190
 RFO step:  Lambda=-2.10501837D-04 EMin= 3.86279218D-02
 Quartic linear search produced a step of  0.54208.
 Iteration  1 RMS(Cart)=  0.02411252 RMS(Int)=  0.00193369
 Iteration  2 RMS(Cart)=  0.00095116 RMS(Int)=  0.00164804
 Iteration  3 RMS(Cart)=  0.00000027 RMS(Int)=  0.00164804
 ClnCor:  largest displacement from symmetrization is 7.44D-05 for atom     4.
 Variable       Old X    -DE/DX   Delta X   Delta X   Delta X     New X
                                 (Linear)    (Quad)   (Total)
    R1        1.91468   0.00183   0.01353  -0.00342   0.01009   1.92477
    R2        1.91468   0.00183   0.01353  -0.00342   0.01009   1.92477
    R3        1.91468   0.00183   0.01353  -0.00342   0.01009   1.92477
    A1        1.88016  -0.00041  -0.01652  -0.01946  -0.03894   1.84122
    A2        1.88016  -0.00218  -0.01652  -0.02126  -0.03894   1.84122
    A3        1.88016  -0.00218  -0.01652  -0.02126  -0.03894   1.84122
    D1       -2.02386   0.00271   0.03824   0.04446   0.07994  -1.94392
         Item               Value     Threshold  Converged?
 Maximum Force            0.002705     0.000450     NO 
 RMS     Force            0.001968     0.000300     NO 
 Maximum Displacement     0.050281     0.001800     NO 
 RMS     Displacement     0.024446     0.001200     NO 
 Predicted change in Energy=-2.142039D-04
 GradGradGradGradGradGradGradGradGradGradGradGradGradGradGradGradGradGrad

                          Input orientation:                          
 ---------------------------------------------------------------------
 Center     Atomic      Atomic             Coordinates (Angstroms)
 Number     Number       Type             X           Y           Z
 ---------------------------------------------------------------------
      1          7           0        0.000000    0.000000   -0.151009
      2          1           0        0.000000   -0.936155    0.250301
      3          1           0       -0.810734    0.468078    0.250301
      4          1           0        0.810734    0.468078    0.250301
 ---------------------------------------------------------------------
                    Distance matrix (angstroms):
                    1          2          3          4
     1  N    0.000000
     2  H    1.018546   0.000000
     3  H    1.018546   1.621468   0.000000
     4  H    1.018546   1.621468   1.621468   0.000000
 Stoichiometry    H3N
 Framework group  C3V[C3(N),3SGV(H)]
 Deg. of freedom     2
 Full point group                 C3V     NOp   6
 Largest Abelian subgroup         CS      NOp   2
 Largest concise Abelian subgroup CS      NOp   2
                         Standard orientation:                         
 ---------------------------------------------------------------------
 Center     Atomic      Atomic             Coordinates (Angstroms)
 Number     Number       Type             X           Y           Z
 ---------------------------------------------------------------------
      1          7           0        0.000000    0.000000    0.120393
      2          1           0        0.000000    0.936155   -0.280917
      3          1           0       -0.810734   -0.468078   -0.280917
      4          1           0        0.810734   -0.468078   -0.280917
 ---------------------------------------------------------------------
 Rotational constants (GHZ):    292.9175334    292.9175334    190.7283286
 Standard basis: 6-31G(d,p) (6D, 7F)
 There are    20 symmetry adapted cartesian basis functions of A'  symmetry.
 There are    10 symmetry adapted cartesian basis functions of A"  symmetry.
 There are    20 symmetry adapted basis functions of A'  symmetry.
 There are    10 symmetry adapted basis functions of A"  symmetry.
    30 basis functions,    49 primitive gaussians,    30 cartesian basis functions
     5 alpha electrons        5 beta electrons
       nuclear repulsion energy        11.8894499798 Hartrees.
 NAtoms=    4 NActive=    4 NUniq=    2 SFac= 4.00D+00 NAtFMM=   60 NAOKFM=F Big=F
 Integral buffers will be    131072 words long.
 Raffenetti 2 integral format.
 Two-electron integral symmetry is turned on.
 One-electron integrals computed using PRISM.
 NBasis=    30 RedAO= T EigKep=  2.83D-02  NBF=    20    10
 NBsUse=    30 1.00D-06 EigRej= -1.00D+00 NBFU=    20    10
 Initial guess from the checkpoint file:  "\\icnas1.cc.ic.ac.uk\hc2616\WORK\Student Shapers\calculations\nh3\nh3.chk"
 B after Tr=     0.000000    0.000000    0.000000
         Rot=    1.000000    0.000000    0.000000    0.000000 Ang=   0.00 deg.
 Initial guess orbital symmetries:
       Occupied  (A1) (A1) (E) (E) (A1)
       Virtual   (?A) (?A) (?A) (?A) (?A) (?A) (?A) (?A) (?A) (?A)
                 (?A) (?A) (?A) (?A) (?A) (?A) (?A) (?A) (?A) (?A)
                 (?A) (?A) (?A) (?A) (?A)
 ExpMin= 1.61D-01 ExpMax= 4.17D+03 ExpMxC= 6.27D+02 IAcc=2 IRadAn=         4 AccDes= 0.00D+00
 Harris functional with IExCor=  402 and IRadAn=       4 diagonalized for initial guess.
 HarFok:  IExCor=  402 AccDes= 0.00D+00 IRadAn=         4 IDoV= 1 UseB2=F ITyADJ=14
 ICtDFT=  3500011 ScaDFX=  1.000000  1.000000  1.000000  1.000000
 FoFCou: FMM=F IPFlag=           0 FMFlag=      100000 FMFlg1=           0
         NFxFlg=           0 DoJE=T BraDBF=F KetDBF=T FulRan=T
         wScrn=  0.000000 ICntrl=     500 IOpCl=  0 I1Cent=   200000004 NGrid=           0
         NMat0=    1 NMatS0=      1 NMatT0=    0 NMatD0=    1 NMtDS0=    0 NMtDT0=    0
 Petite list used in FoFCou.
 Keep R1 ints in memory in symmetry-blocked form, NReq=993845.
 Requested convergence on RMS density matrix=1.00D-08 within 128 cycles.
 Requested convergence on MAX density matrix=1.00D-06.
 Requested convergence on             energy=1.00D-06.
 No special actions if energy rises.
 Integral accuracy reduced to 1.0D-05 until final iterations.
 Initial convergence to 1.0D-05 achieved.  Increase integral accuracy.
 SCF Done:  E(RB3LYP) =  -56.5577653600     A.U. after    9 cycles
            NFock=  9  Conv=0.55D-08     -V/T= 2.0091
 Calling FoFJK, ICntrl=      2127 FMM=F ISym2X=1 I1Cent= 0 IOpClX= 0 NMat=1 NMatS=1 NMatT=0.
 ***** Axes restored to original set *****
 -------------------------------------------------------------------
 Center     Atomic                   Forces (Hartrees/Bohr)
 Number     Number              X              Y              Z
 -------------------------------------------------------------------
      1        7           0.000000000    0.000000000    0.000990933
      2        1           0.000000000    0.000080395   -0.000330311
      3        1           0.000069624   -0.000040197   -0.000330311
      4        1          -0.000069624   -0.000040197   -0.000330311
 -------------------------------------------------------------------
 Cartesian Forces:  Max     0.000990933 RMS     0.000332748

 GradGradGradGradGradGradGradGradGradGradGradGradGradGradGradGradGradGrad
 Berny optimization.
 Using GEDIIS/GDIIS optimizer.
 FormGI is forming the generalized inverse of G from B-inverse, IUseBI=4.
 Internal  Forces:  Max     0.000347808 RMS     0.000256444
 Search for a local minimum.
 Step number   3 out of a maximum of   20
 All quantities printed in internal units (Hartrees-Bohrs-Radians)
 Mixed Optimization -- En-DIIS/RFO-DIIS
 Update second derivatives using D2CorX and points    1    2    3
 DE= -2.07D-04 DEPred=-2.14D-04 R= 9.69D-01
 TightC=F SS=  1.41D+00  RLast= 1.06D-01 DXNew= 5.0454D-01 3.1812D-01
 Trust test= 9.69D-01 RLast= 1.06D-01 DXMaxT set to 3.18D-01
 The second derivative matrix:
                          R1        R2        R3        A1        A2
           R1           0.48955
[...]
                                            1.0000 -0.0002  0.0000  0.0000  0.0000
                                            0.0000  0.0000  0.0000  0.0000  0.0000
                                            0.0000  0.0000  0.0000  0.0000  0.0000
     5. (1.99721) LP ( 1) N   1           s( 25.38%)p 2.94( 74.52%)d 0.00(  0.10%)
                                            0.0001  0.5036 -0.0120  0.0000  0.0000
                                            0.0000  0.0000  0.0000  0.8618 -0.0505
                                            0.0000  0.0000  0.0000  0.0000 -0.0310
     6. (0.00000) RY*( 1) N   1           s( 99.98%)p 0.00(  0.02%)d 0.00(  0.00%)
     7. (0.00000) RY*( 2) N   1           s(100.00%)
     8. (0.00000) RY*( 3) N   1           s(  0.00%)p 1.00(100.00%)d 0.00(  0.00%)
     9. (0.00000) RY*( 4) N   1           s(  0.00%)p 1.00(100.00%)d 0.00(  0.00%)
    10. (0.00000) RY*( 5) N   1           s(  0.03%)p99.99( 99.97%)d 0.01(  0.00%)
    11. (0.00000) RY*( 6) N   1           s(  0.00%)p 1.00(  0.01%)d99.99( 99.99%)
    12. (0.00000) RY*( 7) N   1           s(  0.00%)p 1.00(  0.12%)d99.99( 99.88%)
    13. (0.00000) RY*( 8) N   1           s(  0.00%)p 1.00(  0.12%)d99.99( 99.88%)
    14. (0.00000) RY*( 9) N   1           s(  0.00%)p 1.00(  0.01%)d99.99( 99.99%)
    15. (0.00000) RY*(10) N   1           s(  0.02%)p 4.22(  0.08%)d99.99( 99.90%)
    16. (0.00112) RY*( 1) H   2           s( 72.77%)p 0.37( 27.23%)
                                            0.0038  0.8530  0.0000  0.0017 -0.5218
    17. (0.00045) RY*( 2) H   2           s( 26.59%)p 2.76( 73.41%)
                                           -0.0017  0.5157  0.0000  0.1501  0.8435
    18. (0.00034) RY*( 3) H   2           s(  0.00%)p 1.00(100.00%)
                                            0.0000  0.0000  1.0000  0.0000  0.0000
    19. (0.00000) RY*( 4) H   2           s(  0.72%)p99.99( 99.28%)
    20. (0.00112) RY*( 1) H   3           s( 72.77%)p 0.37( 27.23%)
                                            0.0038  0.8530 -0.0015 -0.0009 -0.5218
    21. (0.00045) RY*( 2) H   3           s( 26.59%)p 2.76( 73.41%)
                                           -0.0017  0.5157 -0.1300 -0.0750  0.8435
    22. (0.00034) RY*( 3) H   3           s(  0.00%)p 1.00(100.00%)
                                            0.0000  0.0000 -0.5000  0.8660  0.0000
    23. (0.00000) RY*( 4) H   3           s(  0.72%)p99.99( 99.28%)
    24. (0.00112) RY*( 1) H   4           s( 72.77%)p 0.37( 27.23%)
                                            0.0038  0.8530  0.0015 -0.0009 -0.5218
    25. (0.00045) RY*( 2) H   4           s( 26.59%)p 2.76( 73.41%)
                                           -0.0017  0.5157  0.1300 -0.0750  0.8435
    26. (0.00034) RY*( 3) H   4           s(  0.00%)p 1.00(100.00%)
                                            0.0000  0.0000  0.5000  0.8660  0.0000
    27. (0.00000) RY*( 4) H   4           s(  0.72%)p99.99( 99.28%)
    28. (0.00000) BD*( 1) N   1 - H   2  
                ( 31.17%)   0.5583* N   1 s( 24.86%)p 3.02( 75.05%)d 0.00(  0.09%)
                ( 68.83%)  -0.8297* H   2 s( 99.91%)p 0.00(  0.09%)
    29. (0.00000) BD*( 1) N   1 - H   3  
                ( 31.17%)   0.5583* N   1 s( 24.86%)p 3.02( 75.05%)d 0.00(  0.09%)
                ( 68.83%)  -0.8297* H   3 s( 99.91%)p 0.00(  0.09%)
    30. (0.00000) BD*( 1) N   1 - H   4  
                ( 31.17%)   0.5583* N   1 s( 24.86%)p 3.02( 75.05%)d 0.00(  0.09%)
                ( 68.83%)  -0.8297* H   4 s( 99.91%)p 0.00(  0.09%)


 NHO Directionality and "Bond Bending" (deviations from line of nuclear centers)

         [Thresholds for printing:  angular deviation  >  1.0 degree]
                                    hybrid p-character > 25.0%
                                    orbital occupancy  >  0.10e

                                Line of Centers        Hybrid 1              Hybrid 2
                                ---------------  -------------------   ------------------
                NBO               Theta   Phi    Theta   Phi    Dev    Theta   Phi    Dev
 ========================================================================================
     1. BD (   1) N   1 - H   2   113.0   90.0   108.7   90.0   4.3      --     --    --
     2. BD (   1) N   1 - H   3   113.0  210.0   108.7  210.0   4.3      --     --    --
     3. BD (   1) N   1 - H   4   113.0  330.0   108.7  330.0   4.3      --     --    --
     5. LP (   1) N   1             --     --      0.0    0.0   --       --     --    --


 Second Order Perturbation Theory Analysis of Fock Matrix in NBO Basis

     Threshold for printing:   0.50 kcal/mol
                                                                              E(2)  E(j)-E(i) F(i,j)
         Donor NBO (i)                     Acceptor NBO (j)                 kcal/mol   a.u.    a.u. 
 ===================================================================================================

 within unit  1
   5. LP (   1) N   1                / 16. RY*(   1) H   2                    1.01    1.43    0.034
   5. LP (   1) N   1                / 17. RY*(   2) H   2                    0.67    2.17    0.034
   5. LP (   1) N   1                / 20. RY*(   1) H   3                    1.01    1.43    0.034
   5. LP (   1) N   1                / 21. RY*(   2) H   3                    0.67    2.17    0.034
   5. LP (   1) N   1                / 24. RY*(   1) H   4                    1.01    1.43    0.034
   5. LP (   1) N   1                / 25. RY*(   2) H   4                    0.67    2.17    0.034


 Natural Bond Orbitals (Summary):

                                                            Principal Delocalizations
           NBO                        Occupancy    Energy   (geminal,vicinal,remote)
 ====================================================================================
 Molecular unit  1  (H3N)
     1. BD (   1) N   1 - H   2          1.99909    -0.60417   
     2. BD (   1) N   1 - H   3          1.99909    -0.60417   
     3. BD (   1) N   1 - H   4          1.99909    -0.60417   
     4. CR (   1) N   1                  1.99982   -14.16768   
     5. LP (   1) N   1                  1.99721    -0.31757  16(v),20(v),24(v),17(v)
                                                    21(v),25(v)
     6. RY*(   1) N   1                  0.00000     1.20800   
     7. RY*(   2) N   1                  0.00000     3.73004   
     8. RY*(   3) N   1                  0.00000     0.77341   
     9. RY*(   4) N   1                  0.00000     0.77341   
    10. RY*(   5) N   1                  0.00000     0.73750   
    11. RY*(   6) N   1                  0.00000     2.40915   
    12. RY*(   7) N   1                  0.00000     2.29066   
    13. RY*(   8) N   1                  0.00000     2.29043   
    14. RY*(   9) N   1                  0.00000     2.40938   
    15. RY*(  10) N   1                  0.00000     2.08111   
    16. RY*(   1) H   2                  0.00112     1.11325   
    17. RY*(   2) H   2                  0.00045     1.84849   
    18. RY*(   3) H   2                  0.00034     2.31979   
    19. RY*(   4) H   2                  0.00000     2.94716   
    20. RY*(   1) H   3                  0.00112     1.11325   
    21. RY*(   2) H   3                  0.00045     1.84849   
    22. RY*(   3) H   3                  0.00034     2.31979   
    23. RY*(   4) H   3                  0.00000     2.94716   
    24. RY*(   1) H   4                  0.00112     1.11325   
    25. RY*(   2) H   4                  0.00045     1.84849   
    26. RY*(   3) H   4                  0.00034     2.31979   
    27. RY*(   4) H   4                  0.00000     2.94716   
    28. BD*(   1) N   1 - H   2          0.00000     0.48618   
    29. BD*(   1) N   1 - H   3          0.00000     0.48618   
    30. BD*(   1) N   1 - H   4          0.00000     0.48618   
       -------------------------------
              Total Lewis    9.99428  ( 99.9428%)
        Valence non-Lewis    0.00000  (  0.0000%)
        Rydberg non-Lewis    0.00572  (  0.0572%)
       -------------------------------
            Total unit  1   10.00000  (100.0000%)
           Charge unit  1    0.00000
 Calling FoFJK, ICntrl=    100127 FMM=F ISym2X=1 I1Cent= 0 IOpClX= 0 NMat=1 NMatS=1 NMatT=0.
 Full mass-weighted force constant matrix:
 Low frequencies ---   -0.0129   -0.0023    0.0016    7.1033    8.1047    8.1050
 Low frequencies --- 1089.3834 1693.9368 1693.9368
 Diagonal vibrational polarizability:
        0.1277101       0.1277105       3.3001330
 Harmonic frequencies (cm**-1), IR intensities (KM/Mole), Raman scattering
 activities (A**4/AMU), depolarization ratios for plane and unpolarized
 incident light, reduced masses (AMU), force constants (mDyne/A),
 and normal coordinates:
                      1                      2                      3
                     A1                      E                      E
 Frequencies --   1089.3834              1693.9368              1693.9368
 Red. masses --      1.1800                 1.0644                 1.0644
 Frc consts  --      0.8251                 1.7996                 1.7996
 IR Inten    --    145.4275                13.5571                13.5571
  Atom  AN      X      Y      Z        X      Y      Z        X      Y      Z
     1   7     0.00   0.00   0.12    -0.07   0.00   0.00     0.00   0.07   0.00
     2   1     0.00  -0.21  -0.53     0.76   0.00   0.00     0.00   0.15   0.26
     3   1     0.18   0.11  -0.53     0.08  -0.39   0.22     0.39  -0.53  -0.13
     4   1    -0.18   0.11  -0.53     0.08   0.39  -0.22    -0.39  -0.53  -0.13
                      4                      5                      6
                     A1                      E                      E
 Frequencies --   3461.3047              3589.8557              3589.8558
 Red. masses --      1.0272                 1.0883                 1.0883
 Frc consts  --      7.2510                 8.2636                 8.2636
 IR Inten    --      1.0594                 0.2699                 0.2699
  Atom  AN      X      Y      Z        X      Y      Z        X      Y      Z
     1   7     0.00   0.00   0.04     0.08   0.00   0.00     0.00   0.08   0.00
     2   1     0.00   0.55  -0.18     0.02   0.00   0.00     0.00  -0.75   0.31
     3   1    -0.47  -0.27  -0.18    -0.56  -0.34  -0.27    -0.34  -0.17  -0.15
     4   1     0.47  -0.27  -0.18    -0.56   0.34   0.27     0.34  -0.17  -0.15

 -------------------
 - Thermochemistry -
 -------------------
 Temperature   298.150 Kelvin.  Pressure   1.00000 Atm.
 Atom     1 has atomic number  7 and mass  14.00307
 Atom     2 has atomic number  1 and mass   1.00783
 Atom     3 has atomic number  1 and mass   1.00783
 Atom     4 has atomic number  1 and mass   1.00783
 Molecular mass:    17.02655 amu.
 Principal axes and moments of inertia in atomic units:
                           1         2         3
     Eigenvalues --     6.14425   6.14425   9.48316
           X           -0.46437   0.88564   0.00000
           Y            0.88564   0.46437   0.00000
           Z            0.00000   0.00000   1.00000
 This molecule is an oblate symmetric top.
 Rotational symmetry number  3.
 Rotational temperatures (Kelvin)     14.09672    14.09672     9.13343
 Rotational constants (GHZ):         293.72828   293.72828   190.31009
 Zero-point vibrational energy      90427.4 (Joules/Mol)
                                   21.61266 (Kcal/Mol)
 Vibrational temperatures:   1567.38  2437.19  2437.19  4980.04  5165.00
          (Kelvin)           5165.00
 
 Zero-point correction=                           0.034442 (Hartree/Particle)
 Thermal correction to Energy=                    0.037305
 Thermal correction to Enthalpy=                  0.038249
 Thermal correction to Gibbs Free Energy=         0.016403
 Sum of electronic and zero-point Energies=            -56.523327
 Sum of electronic and thermal Energies=               -56.520464
 Sum of electronic and thermal Enthalpies=             -56.519520
 Sum of electronic and thermal Free Energies=          -56.541366
 
                     E (Thermal)             CV                S
                      KCal/Mol        Cal/Mol-Kelvin    Cal/Mol-Kelvin
 Total                   23.409              6.326             45.979
 Electronic               0.000              0.000              0.000
 Translational            0.889              2.981             34.441
 Rotational               0.889              2.981             11.463
 Vibrational             21.632              0.364              0.075
                       Q            Log10(Q)             Ln(Q)
 Total Bot       0.285208D-07         -7.544838        -17.372632
 Total V=0       0.198303D+09          8.297330         19.105308
 Vib (Bot)       0.144659D-15        -15.839654        -36.472152
 Vib (V=0)       0.100581D+01          0.002514          0.005788
 Electronic      0.100000D+01          0.000000          0.000000
 Translational   0.276150D+07          6.441145         14.831285
 Rotational      0.713955D+02          1.853671          4.268235
 ***** Axes restored to original set *****
 -------------------------------------------------------------------
 Center     Atomic                   Forces (Hartrees/Bohr)
 Number     Number              X              Y              Z
 -------------------------------------------------------------------
      1        7           0.000000000    0.000000000    0.000004867
      2        1           0.000000000    0.000005584   -0.000001622
      3        1           0.000004836   -0.000002792   -0.000001622
      4        1          -0.000004836   -0.000002792   -0.000001622
 -------------------------------------------------------------------
 Cartesian Forces:  Max     0.000005584 RMS     0.000003229
 FormGI is forming the generalized inverse of G from B-inverse, IUseBI=4.

 GradGradGradGradGradGradGradGradGradGradGradGradGradGradGradGradGradGrad
 Berny optimization.
 Internal  Forces:  Max     0.000005775 RMS     0.000003820
 Search for a local minimum.
 Step number   1 out of a maximum of    2
 All quantities printed in internal units (Hartrees-Bohrs-Radians)
 Second derivative matrix not updated -- analytic derivatives used.
 The second derivative matrix:
                          R1        R2        R3        A1        A2
           R1           0.44951
           R2          -0.00256   0.44951
           R3          -0.00256  -0.00256   0.44951
           A1           0.00870   0.00870  -0.00722   0.05336
           A2           0.02140  -0.00142   0.02397  -0.04151   0.14022
           A3          -0.00142   0.02140   0.02397  -0.04151  -0.02110
           D1          -0.01807  -0.01807  -0.01191  -0.02513  -0.00319
                          A3        D1
           A3           0.14022
           D1          -0.00319   0.03079
 ITU=  0
     Eigenvalues ---    0.04540   0.15059   0.15953   0.44969   0.45385
     Eigenvalues ---    0.45404
 Angle between quadratic step and forces=  12.94 degrees.
 Linear search not attempted -- first point.
 Iteration  1 RMS(Cart)=  0.00000892 RMS(Int)=  0.00000000
 Iteration  2 RMS(Cart)=  0.00000000 RMS(Int)=  0.00000000
 ClnCor:  largest displacement from symmetrization is 6.43D-12 for atom     2.
 Variable       Old X    -DE/DX   Delta X   Delta X   Delta X     New X
                                 (Linear)    (Quad)   (Total)
    R1        1.92370  -0.00001   0.00000  -0.00001  -0.00001   1.92368
    R2        1.92370  -0.00001   0.00000  -0.00001  -0.00001   1.92368
    R3        1.92370  -0.00001   0.00000  -0.00001  -0.00001   1.92368
    A1        1.84559   0.00000   0.00000   0.00000   0.00000   1.84559
    A2        1.84559   0.00000   0.00000   0.00000   0.00000   1.84559
    A3        1.84559   0.00000   0.00000   0.00000   0.00000   1.84559
    D1       -1.95239   0.00000   0.00000   0.00001   0.00001  -1.95238
         Item               Value     Threshold  Converged?
 Maximum Force            0.000006     0.000450     YES
 RMS     Force            0.000004     0.000300     YES
 Maximum Displacement     0.000014     0.001800     YES
 RMS     Displacement     0.000009     0.001200     YES
 Predicted change in Energy=-1.141650D-10
 Optimization completed.
    -- Stationary point found.
                           ----------------------------
                           !   Optimized Parameters   !
                           ! (Angstroms and Degrees)  !
 --------------------------                            --------------------------
 ! Name  Definition              Value          Derivative Info.                !
 --------------------------------------------------------------------------------
 ! R1    R(1,2)                  1.018          -DE/DX =    0.0                 !
 ! R2    R(1,3)                  1.018          -DE/DX =    0.0                 !
 ! R3    R(1,4)                  1.018          -DE/DX =    0.0                 !
 ! A1    A(2,1,3)              105.7446         -DE/DX =    0.0                 !
 ! A2    A(2,1,4)              105.7446         -DE/DX =    0.0                 !
 ! A3    A(3,1,4)              105.7446         -DE/DX =    0.0                 !
 ! D1    D(2,1,4,3)           -111.8637         -DE/DX =    0.0                 !
 --------------------------------------------------------------------------------
 GradGradGradGradGradGradGradGradGradGradGradGradGradGradGradGradGradGrad

 1|1| IMPERIAL COLLEGE-WCBC-109B-001|Freq|RB3LYP|6-31G(d,p)|H3N1|HC2616
 |08-Aug-2019|0||#N Geom=AllCheck Guess=TCheck SCRF=Check GenChk RB3LYP
 /6-31G(d,p) Freq||Title Card Required||0,1|N,0.,0.,-0.1481085753|H,-0.
 0000000025,-0.9371832006,0.249337195|H,-0.8116244585,0.4685916025,0.24
 9337195|H,0.811624461,0.4685915981,0.249337195||Version=EM64W-G09RevD.
 01|State=1-A1|HF=-56.5577687|RMSD=0.000e+000|RMSF=3.229e-006|ZeroPoint
 =0.034442|Thermal=0.0373049|Dipole=0.,0.,0.726455|DipoleDeriv=-0.30887
 34,0.,0.,0.,-0.3088747,0.0000009,0.,0.0000014,-0.5554715,0.161328,0.,0
 .,0.,0.0445887,0.0937743,0.,0.1861333,0.1851571,0.0737731,0.0505499,0.
 0812113,0.0505498,0.1321431,-0.0468874,0.1611965,-0.093067,0.1851571,0
 .0737731,-0.0505499,-0.0812113,-0.0505498,0.1321431,-0.0468874,-0.1611
 965,-0.093067,0.1851571|Polar=9.8263979,0.,9.826393,0.,0.0000052,6.067
 5773|PG=C03V [C3(N1),3SGV(H1)]|NImag=0||0.63158912,0.,0.63158923,0.,-0
 .00000006,0.22811585,-0.06038677,0.,0.,0.05982743,0.,-0.36067281,0.118
 94032,0.,0.39659843,0.,0.17856064,-0.07603864,0.,-0.14161492,0.0758303
 9,-0.28560124,0.13002760,0.10300535,0.00027967,-0.00278189,0.00242586,
 0.31240568,0.13002765,-0.13545824,-0.05947014,0.03437880,-0.01796281,-
 0.01847286,-0.14582612,0.14402018,0.15463803,-0.08928030,-0.07603862,-
 0.01478504,0.01133729,0.00010412,-0.12264212,0.07080746,0.07583039,-0.
 28560124,-0.13002760,-0.10300535,0.00027967,0.00278189,-0.00242586,-0.
 02708405,-0.01858035,-0.01721090,0.31240568,-0.13002765,-0.13545824,-0
 .05947014,-0.03437880,-0.01796281,-0.01847286,0.01858035,0.00940092,0.
 00713557,0.14582612,0.14402018,-0.15463803,-0.08928030,-0.07603862,0.0
 1478504,0.01133729,0.00010412,0.01721090,0.00713557,0.00010412,0.12264
 212,0.07080746,0.07583039||0.,0.,-0.00000487,0.,-0.00000558,0.00000162
 ,-0.00000484,0.00000279,0.00000162,0.00000484,0.00000279,0.00000162|||
 @


 MISERY NO LONGER LOVES COMPANY.  NOWADAYS IT INSISTS ON IT.

                                              -- BAKER'S LAW
 Job cpu time:       0 days  0 hours  0 minutes 15.0 seconds.
 File lengths (MBytes):  RWF=      5 Int=      0 D2E=      0 Chk=      1 Scr=      1
 Normal termination of Gaussian 09 at Thu Aug 08 11:57:53 2019.
