Title Card Required                                                     
Freq      RB3LYP                                                      6-311G(d,p)         
Number of atoms                            I                4
Info1-9                                    I   N=           9
          18          17        1002           0           0         100
           6          18        -502
Charge                                     I                0
Multiplicity                               I                1
Number of electrons                        I               10
Number of alpha electrons                  I                5
Number of beta electrons                   I                5
Number of basis functions                  I               36
Number of independent functions            I               36
Number of point charges in /Mol/           I                0
Number of translation vectors              I                0
Atomic numbers                             I   N=           4
           7           1           1           1
Nuclear charges                            R   N=           4
  7.00000000E+00  1.00000000E+00  1.00000000E+00  1.00000000E+00
Current cartesian coordinates              R   N=          12
  0.00000000E+00  0.00000000E+00  2.18982531E-01  1.05004980E-16  1.77534381E+00
 -5.10959239E-01 -1.53749284E+00 -8.87671905E-01 -5.10959239E-01  1.53749284E+00
 -8.87671905E-01 -5.10959239E-01
Force Field                                I                0
Int Atom Types                             I   N=           4
           0           0           0           0
MM charges                                 R   N=           4
  0.00000000E+00  0.00000000E+00  0.00000000E+00  0.00000000E+00
Integer atomic weights                     I   N=           4
          14           1           1           1
Real atomic weights                        R   N=           4
  1.40030740E+01  1.00782504E+00  1.00782504E+00  1.00782504E+00
Atom fragment info                         I   N=           4
           0           0           0           0
Atom residue num                           I   N=           4
           0           0           0           0
Nuclear spins                              I   N=           4
           2           1           1           1
Nuclear ZEff                               R   N=           4
 -4.55000000E+00 -1.00000000E+00 -1.00000000E+00 -1.00000000E+00
Nuclear QMom                               R   N=           4
  2.04400000E+00  0.00000000E+00  0.00000000E+00  0.00000000E+00
Nuclear GFac                               R   N=           4
  4.03761000E-01  2.79284600E+00  2.79284600E+00  2.79284600E+00
MicOpt                                     I   N=           4
          -1          -1          -1          -1
Number of contracted shells                I               17
Number of primitive shells                 I               30
Pure/Cartesian d shells                    I                0
Pure/Cartesian f shells                    I                0
Highest angular momentum                   I                2
Largest degree of contraction              I                6
Shell types                                I   N=          17
           0          -1          -1          -1          -2           0
           0           0           1           0           0           0
           1           0           0           0           1
Number of primitives per shell             I   N=          17
           6           3           1           1           1           3
           1           1           1           3           1           1
           1           3           1           1           1
Shell to atom map                          I   N=          17
           1           1           1           1           1           2
           2           2           2           3           3           3
           3           4           4           4           4
Primitive exponents                        R   N=          30
  6.29348000E+03  9.49044000E+02  2.18776000E+02  6.36916000E+01  1.88282000E+01
  2.72023000E+00  3.06331000E+01  7.02614000E+00  2.11205000E+00  6.84009000E-01
  2.00878000E-01  9.13000000E-01  3.38650000E+01  5.09479000E+00  1.15879000E+00
  3.25840000E-01  1.02741000E-01  7.50000000E-01  3.38650000E+01  5.09479000E+00
  1.15879000E+00  3.25840000E-01  1.02741000E-01  7.50000000E-01  3.38650000E+01
  5.09479000E+00  1.15879000E+00  3.25840000E-01  1.02741000E-01  7.50000000E-01
Contraction coefficients                   R   N=          30
  1.96978815E-03  1.49612859E-02  7.35005308E-02  2.48936766E-01  6.02459433E-01
  2.56201759E-01  1.11906080E-01  9.21666655E-01 -2.56919183E-03  1.00000000E+00
  1.00000000E+00  1.00000000E+00  2.54938145E-02  1.90373109E-01  8.52161486E-01
  1.00000000E+00  1.00000000E+00  1.00000000E+00  2.54938145E-02  1.90373109E-01
  8.52161486E-01  1.00000000E+00  1.00000000E+00  1.00000000E+00  2.54938145E-02
  1.90373109E-01  8.52161486E-01  1.00000000E+00  1.00000000E+00  1.00000000E+00
P(S=P) Contraction coefficients            R   N=          30
  0.00000000E+00  0.00000000E+00  0.00000000E+00  0.00000000E+00  0.00000000E+00
  0.00000000E+00  3.83119186E-02  2.37403116E-01  8.17592398E-01  1.00000000E+00
  1.00000000E+00  0.00000000E+00  0.00000000E+00  0.00000000E+00  0.00000000E+00
  0.00000000E+00  0.00000000E+00  0.00000000E+00  0.00000000E+00  0.00000000E+00
  0.00000000E+00  0.00000000E+00  0.00000000E+00  0.00000000E+00  0.00000000E+00
  0.00000000E+00  0.00000000E+00  0.00000000E+00  0.00000000E+00  0.00000000E+00
Coordinates of each shell                  R   N=          51
  0.00000000E+00  0.00000000E+00  2.18982531E-01  0.00000000E+00  0.00000000E+00
  2.18982531E-01  0.00000000E+00  0.00000000E+00  2.18982531E-01  0.00000000E+00
  0.00000000E+00  2.18982531E-01  0.00000000E+00  0.00000000E+00  2.18982531E-01
  1.05004980E-16  1.77534381E+00 -5.10959239E-01  1.05004980E-16  1.77534381E+00
 -5.10959239E-01  1.05004980E-16  1.77534381E+00 -5.10959239E-01  1.05004980E-16
  1.77534381E+00 -5.10959239E-01 -1.53749284E+00 -8.87671905E-01 -5.10959239E-01
 -1.53749284E+00 -8.87671905E-01 -5.10959239E-01 -1.53749284E+00 -8.87671905E-01
 -5.10959239E-01 -1.53749284E+00 -8.87671905E-01 -5.10959239E-01  1.53749284E+00
 -8.87671905E-01 -5.10959239E-01  1.53749284E+00 -8.87671905E-01 -5.10959239E-01
  1.53749284E+00 -8.87671905E-01 -5.10959239E-01  1.53749284E+00 -8.87671905E-01
 -5.10959239E-01
Constraint Structure                       R   N=          12
  0.00000000E+00  0.00000000E+00  2.18982531E-01  1.04950770E-16  1.77534381E+00
 -5.10959239E-01 -1.53749284E+00 -8.87671905E-01 -5.10959239E-01  1.53749284E+00
 -8.87671905E-01 -5.10959239E-01
Num ILSW                                   I              100
ILSW                                       I   N=         100
           0           0           0           0           2           0
           0           0           0           0         402  1342177280
           5           0           0           0           2           0
           0           0           1           0           1           0
           1           0           0           0           0           0
           0           0      100000           0          -1           0
           0           0           0           0           0           0
           0           0           0           1           0           0
           0           0           1           0           0           0
           0           0           4          40           0           0
           0           0           5           0           0           0
           0           0           0           0           0           0
           0           0           0           0           0           0
           0           0           0           0           0           0
           0           0           0           0           0           0
           0           0           0           0           0           0
           0           0           0           0
Num RLSW                                   I               40
RLSW                                       R   N=          40
  8.00000000E-01  7.20000000E-01  1.00000000E+00  8.10000000E-01  2.00000000E-01
  0.00000000E+00  0.00000000E+00  1.00000000E+00  0.00000000E+00  0.00000000E+00
  0.00000000E+00  0.00000000E+00  1.00000000E+00  0.00000000E+00  0.00000000E+00
  0.00000000E+00  0.00000000E+00  1.00000000E+00  0.00000000E+00  0.00000000E+00
  0.00000000E+00  0.00000000E+00  1.00000000E+00  0.00000000E+00  0.00000000E+00
  0.00000000E+00  0.00000000E+00  1.00000000E+00  0.00000000E+00  0.00000000E+00
  0.00000000E+00  0.00000000E+00  1.00000000E+00  0.00000000E+00  0.00000000E+00
  0.00000000E+00  0.00000000E+00  0.00000000E+00  1.00000000E+00  1.00000000E+00
MxBond                                     I                3
NBond                                      I   N=           4
           3           1           1           1
IBond                                      I   N=          12
           2           3           4           1           0           0
           1           0           0           1           0           0
RBond                                      R   N=          12
  1.00000000E+00  1.00000000E+00  1.00000000E+00  1.00000000E+00  0.00000000E+00
  0.00000000E+00  1.00000000E+00  0.00000000E+00  0.00000000E+00  1.00000000E+00
  0.00000000E+00  0.00000000E+00
Virial Ratio                               R      2.003210661876357E+00
SCF Energy                                 R     -5.657603583927251E+01
Total Energy                               R     -5.657603583927251E+01
RMS Force                                  R      9.374934212985007E-06
External E-field                           R   N=          35
  0.00000000E+00  0.00000000E+00  0.00000000E+00  0.00000000E+00  0.00000000E+00
  0.00000000E+00  0.00000000E+00  0.00000000E+00  0.00000000E+00  0.00000000E+00
  0.00000000E+00  0.00000000E+00  0.00000000E+00  0.00000000E+00  0.00000000E+00
  0.00000000E+00  0.00000000E+00  0.00000000E+00  0.00000000E+00  0.00000000E+00
  0.00000000E+00  0.00000000E+00  0.00000000E+00  0.00000000E+00  0.00000000E+00
  0.00000000E+00  0.00000000E+00  0.00000000E+00  0.00000000E+00  0.00000000E+00
  0.00000000E+00  0.00000000E+00  0.00000000E+00  0.00000000E+00  0.00000000E+00
IOpCl                                      I                0
IROHF                                      I                0
Alpha Orbital Energies                     R   N=          36
 -1.42784861E+01 -8.47337138E-01 -4.56306779E-01 -4.56306779E-01 -2.58507965E-01
  3.89997143E-02  1.17123116E-01  1.17123116E-01  3.44750664E-01  3.44750664E-01
  4.74265600E-01  5.99058236E-01  7.18805198E-01  7.18805198E-01  8.95229381E-01
  1.11227847E+00  1.11227847E+00  1.52799505E+00  1.55313245E+00  1.63857691E+00
  1.63857691E+00  1.86024596E+00  1.86024596E+00  2.11603561E+00  2.38232391E+00
  2.38232391E+00  2.53358678E+00  2.64548010E+00  2.64548010E+00  2.78578701E+00
  3.04674416E+00  3.04674416E+00  3.94290571E+00  4.71848355E+00  4.71848355E+00
  3.56033528E+01
Alpha MO coefficients                      R   N=        1296
  5.57358276E-01  4.65796478E-01  0.00000000E+00 -1.05543312E-15 -1.33213474E-03
  1.48547021E-02  0.00000000E+00  6.55057334E-15 -1.35856453E-03 -1.53216785E-03
  0.00000000E+00 -2.21169112E-15 -6.48228958E-04 -7.08313924E-04  0.00000000E+00
 -7.48811007E-16 -9.01021980E-16  0.00000000E+00 -4.71521156E-05 -2.33522442E-03
  7.94325586E-04  0.00000000E+00  1.73715351E-03 -6.29449306E-04 -4.71521156E-05
 -2.33522442E-03  7.94325586E-04 -1.50441907E-03 -8.68576757E-04 -6.29449306E-04
 -4.71521156E-05 -2.33522442E-03  7.94325586E-04  1.50441907E-03 -8.68576757E-04
 -6.29449306E-04 -1.11240419E-01 -1.74773777E-01  0.00000000E+00  3.90442886E-15
 -4.82179756E-02  4.80286438E-01  0.00000000E+00 -4.76420119E-15 -7.22851128E-02
  3.10946245E-01  0.00000000E+00  1.50205369E-15 -2.88507889E-02 -4.96578176E-03
  0.00000000E+00  1.14676064E-15  2.29525600E-15  0.00000000E+00  9.40558014E-02
  9.03080214E-02  7.82906346E-03  0.00000000E+00 -1.99401562E-02  4.88505656E-03
  9.40558014E-02  9.03080214E-02  7.82906346E-03  1.72686818E-02  9.97007810E-03
  4.88505656E-03  9.40558014E-02  9.03080214E-02  7.82906346E-03 -1.72686818E-02
  9.97007810E-03  4.88505656E-03 -2.14249191E-15  3.87407120E-15  0.00000000E+00
  2.20521946E-01 -1.50899258E-15 -4.88363283E-15  0.00000000E+00  3.17370755E-01
  3.64812347E-15 -2.33216224E-14  0.00000000E+00  2.02226994E-01  1.58900670E-15
  1.61719596E-15  0.00000000E+00 -2.49724397E-02 -1.38856445E-02  0.00000000E+00
  1.75426546E-01  2.34283069E-01  1.18254592E-01  0.00000000E+00 -1.58548965E-02
  9.54757471E-03 -8.77132729E-02 -1.17141534E-01 -5.91272962E-02 -1.47099239E-02
  9.62343897E-03 -4.77378735E-03 -8.77132729E-02 -1.17141534E-01 -5.91272962E-02
  1.47099239E-02  9.62343897E-03 -4.77378735E-03  0.00000000E+00  0.00000000E+00
  2.20521946E-01  0.00000000E+00  0.00000000E+00  0.00000000E+00  3.17370755E-01
  0.00000000E+00  0.00000000E+00  0.00000000E+00  2.02226994E-01  0.00000000E+00
  0.00000000E+00  0.00000000E+00 -2.49724397E-02  0.00000000E+00  0.00000000E+00
 -1.38856445E-02  0.00000000E+00  0.00000000E+00  0.00000000E+00  1.81162175E-02
  0.00000000E+00  0.00000000E+00 -1.51923845E-01 -2.02895089E-01 -1.02411481E-01
 -7.36211804E-03 -1.47099239E-02 -8.26844224E-03  1.51923845E-01  2.02895089E-01
  1.02411481E-01 -7.36211804E-03  1.47099239E-02  8.26844224E-03 -3.98824092E-02
 -6.41288001E-02  0.00000000E+00  7.81818187E-16  2.62604307E-01  1.89906302E-01
  0.00000000E+00  3.18061549E-15  3.59418609E-01  2.44155818E-01  0.00000000E+00
 -7.19476562E-16  4.65014245E-01 -1.92594302E-02  0.00000000E+00 -1.08203377E-16
  1.81170183E-16  0.00000000E+00 -4.40075901E-02 -2.89988524E-02 -3.53346647E-02
  0.00000000E+00  6.52128029E-03  2.14644035E-02 -4.40075901E-02 -2.89988524E-02
 -3.53346647E-02 -5.64759440E-03 -3.26064015E-03  2.14644035E-02 -4.40075901E-02
 -2.89988524E-02 -3.53346647E-02  5.64759440E-03 -3.26064015E-03  2.14644035E-02
 -5.14141333E-02 -8.12598520E-02  0.00000000E+00 -9.27036226E-15 -7.33432857E-02
  1.83988079E-01  0.00000000E+00  1.22922506E-14 -1.19971783E-01  1.22938430E+00
  0.00000000E+00 -3.18807480E-14 -2.38212513E-01  1.34526207E-03  0.00000000E+00
 -5.08273978E-15 -4.95263552E-15  0.00000000E+00 -2.65099773E-02 -5.77427308E-02
 -6.49851460E-01  0.00000000E+00 -6.53114712E-03 -7.48627591E-04 -2.65099773E-02
 -5.77427308E-02 -6.49851460E-01  5.65613932E-03  3.26557356E-03 -7.48627591E-04
 -2.65099773E-02 -5.77427308E-02 -6.49851460E-01 -5.65613932E-03  3.26557356E-03
 -7.48627591E-04  0.00000000E+00  0.00000000E+00  1.69374433E-01  0.00000000E+00
  0.00000000E+00  0.00000000E+00  1.91020071E-01  0.00000000E+00  0.00000000E+00
  0.00000000E+00  7.05588528E-01  0.00000000E+00  0.00000000E+00  0.00000000E+00
 -4.42698395E-03  0.00000000E+00  0.00000000E+00  9.49432468E-03  0.00000000E+00
  0.00000000E+00  0.00000000E+00  4.80537865E-03  0.00000000E+00  0.00000000E+00
  2.70237924E-02  9.78087310E-03  1.49926960E+00 -1.75259102E-02 -1.28929756E-02
 -1.14416933E-02 -2.70237924E-02 -9.78087310E-03 -1.49926960E+00 -1.75259102E-02
  1.28929756E-02  1.14416933E-02  7.78598106E-15  1.07147906E-14  0.00000000E+00
 -1.69374433E-01  4.23619473E-15 -2.82239882E-14  0.00000000E+00 -1.91020071E-01
  2.53495142E-14 -2.56515295E-13  0.00000000E+00 -7.05588528E-01  8.74638903E-14
  4.04168886E-15  0.00000000E+00  4.42698395E-03 -9.49432468E-03  0.00000000E+00
  3.12043876E-02  1.12939794E-02  1.73120741E+00  0.00000000E+00  2.49696731E-02
 -1.32117294E-02 -1.56021938E-02 -5.64698972E-03 -8.65603705E-01  1.28929756E-02
  2.63838429E-03  6.60586469E-03 -1.56021938E-02 -5.64698972E-03 -8.65603705E-01
 -1.28929756E-02  2.63838429E-03  6.60586469E-03  0.00000000E+00  0.00000000E+00
  8.08472780E-02  0.00000000E+00  0.00000000E+00  0.00000000E+00  1.47086395E-01
  0.00000000E+00  0.00000000E+00  0.00000000E+00  1.13449659E+00  0.00000000E+00
  0.00000000E+00  0.00000000E+00 -2.29588926E-03  0.00000000E+00  0.00000000E+00
  1.68523793E-02  0.00000000E+00  0.00000000E+00  0.00000000E+00  2.91527106E-02
  0.00000000E+00  0.00000000E+00  1.02022427E-01  1.28919241E+00 -6.36915449E-01
  3.40062898E-02  2.80221531E-03  3.58250238E-03 -1.02022427E-01 -1.28919241E+00
  6.36915449E-01  3.40062898E-02 -2.80221531E-03 -3.58250238E-03 -9.89486271E-15
 -9.43863043E-15  0.00000000E+00 -8.08472780E-02 -2.59167687E-15  4.51884895E-14
  0.00000000E+00 -1.47086395E-01  1.24206201E-15  1.60760294E-13  0.00000000E+00
 -1.13449659E+00 -1.03084208E-13  3.14678839E-15  0.00000000E+00  2.29588926E-03
 -1.68523793E-02  0.00000000E+00  1.17805352E-01  1.48863118E+00 -7.35446612E-01
  0.00000000E+00 -3.56241496E-02  4.13671743E-03 -5.89026758E-02 -7.44315588E-01
  3.67723306E-01 -2.80221531E-03 -3.07705703E-02 -2.06835871E-03 -5.89026758E-02
 -7.44315588E-01  3.67723306E-01  2.80221531E-03 -3.07705703E-02 -2.06835871E-03
 -5.26537436E-02 -9.10125506E-02  0.00000000E+00 -7.95544186E-15 -4.06799703E-02
  2.59187930E-01  0.00000000E+00 -5.53862511E-14 -9.11330671E-02  1.69841821E+00
  0.00000000E+00  1.76650361E-13 -8.80186253E-01  2.65111508E-02  0.00000000E+00
  2.01921813E-15  3.50414142E-15  0.00000000E+00 -7.77632490E-02 -1.45098502E+00
  4.12454186E-01  0.00000000E+00  1.26281656E-02 -3.46246718E-02 -7.77632490E-02
 -1.45098502E+00  4.12454186E-01 -1.09363122E-02 -6.31408278E-03 -3.46246718E-02
 -7.77632490E-02 -1.45098502E+00  4.12454186E-01  1.09363122E-02 -6.31408278E-03
 -3.46246718E-02  4.55163693E-03  7.78796046E-03  0.00000000E+00 -4.02889527E-15
 -2.69272374E-01  6.44097509E-02  0.00000000E+00  9.13158438E-15 -8.03517545E-01
 -9.41539325E-01  0.00000000E+00  5.34988720E-15  1.37377249E+00  2.72162651E-02
  0.00000000E+00 -5.23192600E-15 -4.41834069E-15  0.00000000E+00 -1.76914187E-02
  2.64814709E-01  1.77954785E-01  0.00000000E+00 -8.66571630E-02  2.94550022E-03
 -1.76914187E-02  2.64814709E-01  1.77954785E-01  7.50473046E-02  4.33285815E-02
  2.94550022E-03 -1.76914187E-02  2.64814709E-01  1.77954785E-01 -7.50473046E-02
  4.33285815E-02  2.94550022E-03  0.00000000E+00  0.00000000E+00 -2.78784304E-01
  0.00000000E+00  0.00000000E+00  0.00000000E+00 -7.85887584E-01  0.00000000E+00
  0.00000000E+00  0.00000000E+00  1.81000695E+00  0.00000000E+00  0.00000000E+00
  0.00000000E+00 -3.14750636E-02  0.00000000E+00  0.00000000E+00 -4.56057000E-02
  0.00000000E+00  0.00000000E+00  0.00000000E+00 -3.24030694E-02  0.00000000E+00
  0.00000000E+00 -4.55875077E-02  8.62357431E-02  1.13672475E+00  9.83249444E-02
  7.54758540E-02  6.05258345E-02  4.55875077E-02 -8.62357431E-02 -1.13672475E+00
  9.83249444E-02 -7.54758540E-02 -6.05258345E-02  9.82737112E-15 -6.17377243E-15
  0.00000000E+00 -2.78784304E-01  4.32401510E-15  8.99541536E-15  0.00000000E+00
 -7.85887584E-01 -6.49827414E-15 -2.00742201E-14  0.00000000E+00  1.81000695E+00
  1.66568148E-14 -1.08558995E-14  0.00000000E+00 -3.14750636E-02 -4.56057000E-02
  0.00000000E+00  5.26399197E-02 -9.95764590E-02 -1.31257668E+00  0.00000000E+00
  1.41900949E-01 -6.98892136E-02 -2.63199598E-02  4.97882295E-02  6.56288341E-01
  7.54758540E-02  1.11729352E-02  3.49446068E-02 -2.63199598E-02  4.97882295E-02
  6.56288341E-01 -7.54758540E-02  1.11729352E-02  3.49446068E-02  1.06037781E-01
  2.05686804E-01  0.00000000E+00 -1.07552856E-16  2.69000726E-02 -1.68795279E+00
  0.00000000E+00 -1.46688217E-14 -1.87413085E-01  4.31857521E+00  0.00000000E+00
 -4.10782519E-15 -6.59880996E-01 -3.52723713E-03  0.00000000E+00 -1.89431804E-15
 -2.13717932E-15  0.00000000E+00  2.34424037E-02 -9.45096809E-01 -4.30410759E-01
  0.00000000E+00  2.15104113E-01 -1.64309018E-01  2.34424037E-02 -9.45096809E-01
 -4.30410759E-01 -1.86285627E-01 -1.07552057E-01 -1.64309018E-01  2.34424037E-02
 -9.45096809E-01 -4.30410759E-01  1.86285627E-01 -1.07552057E-01 -1.64309018E-01
  1.12410081E-15  1.09070739E-15  0.00000000E+00  1.93293601E-02  3.10949183E-16
 -1.45787313E-14  0.00000000E+00  6.09561213E-02  2.28463082E-15  3.35148576E-14
  0.00000000E+00  3.72119821E-01 -3.65679709E-15  1.35655376E-15  0.00000000E+00
  1.70839589E-01 -1.70289481E-01  0.00000000E+00  3.61288532E-02 -3.05470090E-01
  6.49788599E-03  0.00000000E+00  2.11009064E-01  4.42272911E-01 -1.80644266E-02
  1.52735045E-01 -3.24894299E-03  3.06751561E-01 -3.20300225E-01 -2.21136455E-01
 -1.80644266E-02  1.52735045E-01 -3.24894299E-03 -3.06751561E-01 -3.20300225E-01
 -2.21136455E-01  0.00000000E+00  0.00000000E+00 -1.93293601E-02  0.00000000E+00
  0.00000000E+00  0.00000000E+00 -6.09561213E-02  0.00000000E+00  0.00000000E+00
  0.00000000E+00 -3.72119821E-01  0.00000000E+00  0.00000000E+00  0.00000000E+00
 -1.70839589E-01  0.00000000E+00  0.00000000E+00  1.70289481E-01  0.00000000E+00
  0.00000000E+00  0.00000000E+00  4.97403322E-01  0.00000000E+00  0.00000000E+00
  3.12885047E-02 -2.64544858E-01  5.62733434E-03 -3.39059673E-02 -3.06751561E-01
  3.83019576E-01 -3.12885047E-02  2.64544858E-01 -5.62733434E-03 -3.39059673E-02
  3.06751561E-01 -3.83019576E-01  0.00000000E+00  0.00000000E+00  2.03613168E-16
  0.00000000E+00  0.00000000E+00  0.00000000E+00  9.76562581E-15  0.00000000E+00
  0.00000000E+00  0.00000000E+00  1.91244590E-14  0.00000000E+00  0.00000000E+00
  0.00000000E+00 -4.26958816E-15  0.00000000E+00  0.00000000E+00 -4.05708453E-15
  0.00000000E+00  0.00000000E+00  0.00000000E+00  6.19384465E-01  0.00000000E+00
  0.00000000E+00 -4.89799173E-15  2.28584512E-14 -2.72872003E-15 -3.09692233E-01
  5.36402682E-01  1.39144338E-14  4.89799173E-15 -2.28584512E-14  2.72872003E-15
 -3.09692233E-01 -5.36402682E-01 -1.39144338E-14  3.94107653E-02  8.47696048E-02
  0.00000000E+00  4.42701431E-15 -7.17779483E-02 -8.11152344E-01  0.00000000E+00
  4.64905892E-15 -2.80441876E-02  2.22436062E+00  0.00000000E+00 -3.73312492E-14
 -1.12514264E+00 -3.48906100E-01  0.00000000E+00  7.33441086E-15  3.92741395E-15
  0.00000000E+00  3.72600785E-02 -9.08206741E-01 -1.52948377E-02  0.00000000E+00
  1.40596810E-01  5.23263056E-01  3.72600785E-02 -9.08206741E-01 -1.52948377E-02
 -1.21760409E-01 -7.02984050E-02  5.23263056E-01  3.72600785E-02 -9.08206741E-01
 -1.52948377E-02  1.21760409E-01 -7.02984050E-02  5.23263056E-01  0.00000000E+00
  0.00000000E+00 -3.31542380E-03  0.00000000E+00  0.00000000E+00  0.00000000E+00
 -5.60605949E-02  0.00000000E+00  0.00000000E+00  0.00000000E+00  1.09191679E+00
  0.00000000E+00  0.00000000E+00  0.00000000E+00 -1.07990342E-01  0.00000000E+00
  0.00000000E+00 -2.29372443E-01  0.00000000E+00  0.00000000E+00  0.00000000E+00
 -5.67541855E-01  0.00000000E+00  0.00000000E+00 -2.73636557E-01  9.56482380E-01
 -1.58160320E-01 -4.05961615E-01  9.32883952E-02  4.36126312E-01  2.73636557E-01
 -9.56482380E-01  1.58160320E-01 -4.05961615E-01 -9.32883952E-02 -4.36126312E-01
 -2.32583050E-15  4.92661467E-16  0.00000000E+00  3.31542380E-03  5.48172618E-16
  1.89915358E-14  0.00000000E+00  5.60605949E-02 -1.11716192E-15 -4.97379915E-14
  0.00000000E+00 -1.09191679E+00  3.44030360E-14  6.17908502E-15  0.00000000E+00
  1.07990342E-01  2.29372443E-01  0.00000000E+00 -3.15968279E-01  1.10445072E+00
 -1.82627807E-01  0.00000000E+00  3.52101535E-01  5.03595288E-01  1.57984140E-01
 -5.52225359E-01  9.13139036E-02 -9.32883952E-02  5.13681775E-01 -2.51797644E-01
  1.57984140E-01 -5.52225359E-01  9.13139036E-02  9.32883952E-02  5.13681775E-01
 -2.51797644E-01 -2.82976767E-16 -8.81239526E-16  0.00000000E+00  1.57361747E-01
  6.09755302E-16  1.28976961E-14  0.00000000E+00  3.06380745E-01 -7.28930805E-15
  4.95992136E-14  0.00000000E+00  1.88851549E-01 -1.14769305E-14  1.42247325E-15
  0.00000000E+00  3.56299086E-01  2.75744682E-01  0.00000000E+00 -5.68230199E-01
  6.62340861E-01 -5.80164807E-01  0.00000000E+00  2.58513706E-01 -4.85920304E-01
  2.84115099E-01 -3.31170431E-01  2.90082404E-01  2.65933999E-01 -2.02097493E-01
  2.42960152E-01  2.84115099E-01 -3.31170431E-01  2.90082404E-01 -2.65933999E-01
 -2.02097493E-01  2.42960152E-01  0.00000000E+00  0.00000000E+00 -1.57361747E-01
  0.00000000E+00  0.00000000E+00  0.00000000E+00 -3.06380745E-01  0.00000000E+00
  0.00000000E+00  0.00000000E+00 -1.88851549E-01  0.00000000E+00  0.00000000E+00
  0.00000000E+00 -3.56299086E-01  0.00000000E+00  0.00000000E+00 -2.75744682E-01
  0.00000000E+00  0.00000000E+00  0.00000000E+00  3.55634559E-01  0.00000000E+00
  0.00000000E+00 -4.92101787E-01  5.73604012E-01 -5.02437461E-01 -1.04976640E-01
 -2.65933999E-01 -4.20819327E-01  4.92101787E-01 -5.73604012E-01  5.02437461E-01
 -1.04976640E-01  2.65933999E-01  4.20819327E-01 -2.30764819E-02 -3.02954275E-02
  0.00000000E+00 -1.76941795E-15 -1.84258419E-01  1.03166250E-02  0.00000000E+00
  9.57636748E-14  2.70508562E-02 -4.94719585E-01  0.00000000E+00  4.58660887E-14
  5.07973680E-02  3.61757668E-01  0.00000000E+00 -1.12965193E-14 -1.89501193E-14
  0.00000000E+00 -7.67278335E-01  1.10740133E+00 -3.20467990E-01  0.00000000E+00
  1.57260369E-01  1.80525263E-01 -7.67278335E-01  1.10740133E+00 -3.20467990E-01
 -1.36191474E-01 -7.86301843E-02  1.80525263E-01 -7.67278335E-01  1.10740133E+00
 -3.20467990E-01  1.36191474E-01 -7.86301843E-02  1.80525263E-01  0.00000000E+00
  0.00000000E+00 -3.50358347E-03  0.00000000E+00  0.00000000E+00  0.00000000E+00
  1.20084981E+00  0.00000000E+00  0.00000000E+00  0.00000000E+00  5.62235302E-01
  0.00000000E+00  0.00000000E+00  0.00000000E+00 -2.26532343E-01  0.00000000E+00
  0.00000000E+00 -3.23028264E-01  0.00000000E+00  0.00000000E+00  0.00000000E+00
 -2.15760515E-02  0.00000000E+00  0.00000000E+00 -7.58355306E-01  2.08987253E+00
 -4.76768072E-01  8.87649597E-01  5.24941673E-01  4.59622556E-01  7.58355306E-01
 -2.08987253E+00  4.76768072E-01  8.87649597E-01 -5.24941673E-01 -4.59622556E-01
 -1.61849700E-15 -2.28289609E-15  0.00000000E+00  3.50358347E-03 -1.94115557E-14
  4.91289951E-15  0.00000000E+00 -1.20084981E+00 -2.10942375E-15 -1.93178806E-14
  0.00000000E+00 -5.62235302E-01 -8.38218384E-15  6.71754319E-14  0.00000000E+00
  2.26532343E-01  3.23028264E-01  0.00000000E+00 -8.75673280E-01  2.41317694E+00
 -5.50524350E-01  0.00000000E+00 -1.19072481E+00  5.30726413E-01  4.37836640E-01
 -1.20658847E+00  2.75262175E-01 -5.24941673E-01 -2.81499165E-01 -2.65363206E-01
  4.37836640E-01 -1.20658847E+00  2.75262175E-01  5.24941673E-01 -2.81499165E-01
 -2.65363206E-01 -2.82988531E-02 -7.55166443E-02  0.00000000E+00  8.76035355E-15
 -8.88108042E-02  5.08297743E-01  0.00000000E+00  5.67046410E-14 -3.73679379E-01
  2.42641532E+00  0.00000000E+00  3.01980663E-14 -1.12268774E+00  6.34270649E-01
  0.00000000E+00 -4.81281681E-14 -2.39114284E-14  0.00000000E+00  4.97579129E-01
 -1.68986847E+00  1.23545763E-01  0.00000000E+00  6.92692324E-01  2.46604904E-01
  4.97579129E-01 -1.68986847E+00  1.23545763E-01 -5.99889150E-01 -3.46346162E-01
  2.46604904E-01  4.97579129E-01 -1.68986847E+00  1.23545763E-01  5.99889150E-01
 -3.46346162E-01  2.46604904E-01  0.00000000E+00  0.00000000E+00 -7.38323836E-02
  0.00000000E+00  0.00000000E+00  0.00000000E+00 -6.03169929E-02  0.00000000E+00
  0.00000000E+00  0.00000000E+00 -5.47731251E-01  0.00000000E+00  0.00000000E+00
  0.00000000E+00  8.83194487E-01  0.00000000E+00  0.00000000E+00 -7.16545833E-01
  0.00000000E+00  0.00000000E+00  0.00000000E+00  5.93666856E-01  0.00000000E+00
  0.00000000E+00 -3.15464167E-03 -2.95205240E-01 -8.84929305E-02 -3.92674745E-02
 -3.65424806E-01  2.23495646E-01  3.15464167E-03  2.95205240E-01  8.84929305E-02
 -3.92674745E-02  3.65424806E-01 -2.23495646E-01 -3.26605062E-15 -1.73559084E-15
  0.00000000E+00 -7.38323836E-02 -4.66770719E-15  2.33079073E-14  0.00000000E+00
 -6.03169929E-02 -1.19904087E-14  6.33104680E-14  0.00000000E+00 -5.47731251E-01
 -2.44040899E-14  5.65780062E-15  0.00000000E+00  8.83194487E-01 -7.16545833E-01
  0.00000000E+00  3.64266643E-03  3.40873650E-01  1.02182835E-01  0.00000000E+00
 -2.50245585E-01 -2.58070543E-01 -1.82133322E-03 -1.70436825E-01 -5.10914173E-02
 -3.65424806E-01  3.82688746E-01  1.29035271E-01 -1.82133322E-03 -1.70436825E-01
 -5.10914173E-02  3.65424806E-01  3.82688746E-01  1.29035271E-01 -7.50073301E-02
 -1.63194913E-01  0.00000000E+00  2.93411129E-14 -2.79575200E-01  9.54047907E-01
  0.00000000E+00 -2.16493490E-15 -4.52938127E-01  3.36493444E+00  0.00000000E+00
  2.13440376E-14 -8.97413253E-01 -8.78054863E-01  0.00000000E+00 -4.82253126E-14
 -4.76146900E-14  0.00000000E+00 -3.49011313E-03 -1.67208015E+00 -6.70412749E-02
  0.00000000E+00  9.24750649E-01 -4.37950369E-01 -3.49011313E-03 -1.67208015E+00
 -6.70412749E-02 -8.00857555E-01 -4.62375325E-01 -4.37950369E-01 -3.49011313E-03
 -1.67208015E+00 -6.70412749E-02  8.00857555E-01 -4.62375325E-01 -4.37950369E-01
  0.00000000E+00  0.00000000E+00 -6.18075707E-01  0.00000000E+00  0.00000000E+00
  0.00000000E+00  2.60098910E-02  0.00000000E+00  0.00000000E+00  0.00000000E+00
 -8.62745779E-01  0.00000000E+00  0.00000000E+00  0.00000000E+00  6.88509041E-01
  0.00000000E+00  0.00000000E+00  9.28681527E-01  0.00000000E+00  0.00000000E+00
  0.00000000E+00 -8.48428710E-02  0.00000000E+00  0.00000000E+00 -5.14478686E-01
 -3.47560426E-01 -4.01023396E-01 -5.48961765E-01 -2.67959169E-01 -2.36548015E-01
  5.14478686E-01  3.47560426E-01  4.01023396E-01 -5.48961765E-01  2.67959169E-01
  2.36548015E-01 -6.40590012E-15 -7.59375202E-15  0.00000000E+00 -6.18075707E-01
 -2.69948994E-14  5.42784947E-14  0.00000000E+00  2.60098910E-02 -2.07334150E-14
  2.45553577E-13  0.00000000E+00 -8.62745779E-01 -7.91589017E-14 -3.57908148E-14
  0.00000000E+00  6.88509041E-01  9.28681527E-01  0.00000000E+00  5.94068816E-01
  4.01328211E-01  4.63061932E-01  0.00000000E+00 -7.03668063E-01  2.73142121E-01
 -2.97034408E-01 -2.00664106E-01 -2.31530966E-01 -2.67959169E-01 -2.39549169E-01
 -1.36571060E-01 -2.97034408E-01 -2.00664106E-01 -2.31530966E-01  2.67959169E-01
 -2.39549169E-01 -1.36571060E-01  3.88116913E-02  7.49225492E-02  0.00000000E+00