 Default is to use a total of   8 processors:
                                8 via shared-memory
                                1 via Linda
 Entering Link 1 = C:\G09W\l1.exe PID=     11408.
  
 Copyright (c) 1988,1990,1992,1993,1995,1998,2003,2009,2013,
            Gaussian, Inc.  All Rights Reserved.
  
 This is part of the Gaussian(R) 09 program.  It is based on
 the Gaussian(R) 03 system (copyright 2003, Gaussian, Inc.),
 the Gaussian(R) 98 system (copyright 1998, Gaussian, Inc.),
 the Gaussian(R) 94 system (copyright 1995, Gaussian, Inc.),
 the Gaussian 92(TM) system (copyright 1992, Gaussian, Inc.),
 the Gaussian 90(TM) system (copyright 1990, Gaussian, Inc.),
 the Gaussian 88(TM) system (copyright 1988, Gaussian, Inc.),
 the Gaussian 86(TM) system (copyright 1986, Carnegie Mellon
 University), and the Gaussian 82(TM) system (copyright 1983,
 Carnegie Mellon University). Gaussian is a federally registered
 trademark of Gaussian, Inc.
  
 This software contains proprietary and confidential information,
 including trade secrets, belonging to Gaussian, Inc.
  
 This software is provided under written license and may be
 used, copied, transmitted, or stored only in accord with that
 written license.
  
 The following legend is applicable only to US Government
 contracts under FAR:
  
                    RESTRICTED RIGHTS LEGEND
  
 Use, reproduction and disclosure by the US Government is
 subject to restrictions as set forth in subparagraphs (a)
 and (c) of the Commercial Computer Software - Restricted
 Rights clause in FAR 52.227-19.
  
 Gaussian, Inc.
 340 Quinnipiac St., Bldg. 40, Wallingford CT 06492
  
  
 ---------------------------------------------------------------
 Warning -- This program may not be used in any manner that
 competes with the business of Gaussian, Inc. or will provide
 assistance to any competitor of Gaussian, Inc.  The licensee
 of this program is prohibited from giving any competitor of
 Gaussian, Inc. access to this program.  By using this program,
 the user acknowledges that Gaussian, Inc. is engaged in the
 business of creating and licensing software in the field of
 computational chemistry and represents and warrants to the
 licensee that it is not a competitor of Gaussian, Inc. and that
 it will not use this program in any manner prohibited above.
 ---------------------------------------------------------------
  

 Cite this work as:
 Gaussian 09, Revision D.01,
 M. J. Frisch, G. W. Trucks, H. B. Schlegel, G. E. Scuseria, 
 M. A. Robb, J. R. Cheeseman, G. Scalmani, V. Barone, B. Mennucci, 
 G. A. Petersson, H. Nakatsuji, M. Caricato, X. Li, H. P. Hratchian, 
 A. F. Izmaylov, J. Bloino, G. Zheng, J. L. Sonnenberg, M. Hada, 
 M. Ehara, K. Toyota, R. Fukuda, J. Hasegawa, M. Ishida, T. Nakajima, 
 Y. Honda, O. Kitao, H. Nakai, T. Vreven, J. A. Montgomery, Jr., 
 J. E. Peralta, F. Ogliaro, M. Bearpark, J. J. Heyd, E. Brothers, 
 K. N. Kudin, V. N. Staroverov, T. Keith, R. Kobayashi, J. Normand, 
 K. Raghavachari, A. Rendell, J. C. Burant, S. S. Iyengar, J. Tomasi, 
 M. Cossi, N. Rega, J. M. Millam, M. Klene, J. E. Knox, J. B. Cross, 
 V. Bakken, C. Adamo, J. Jaramillo, R. Gomperts, R. E. Stratmann, 
 O. Yazyev, A. J. Austin, R. Cammi, C. Pomelli, J. W. Ochterski, 
 R. L. Martin, K. Morokuma, V. G. Zakrzewski, G. A. Voth, 
 P. Salvador, J. J. Dannenberg, S. Dapprich, A. D. Daniels, 
 O. Farkas, J. B. Foresman, J. V. Ortiz, J. Cioslowski, 
 and D. J. Fox, Gaussian, Inc., Wallingford CT, 2013.
 
 ******************************************
 Gaussian 09:  EM64W-G09RevD.01 13-Apr-2013
                08-Aug-2019 
 ******************************************
 %chk=\\icnas1.cc.ic.ac.uk\hc2616\WORK\Student Shapers\calculations\co2\co2.chk
 Default route:  MaxDisk=10GB
 ----------------------------------------------------------------------
 # opt freq b3lyp/6-31g(d,p) geom=connectivity integral=grid=ultrafine 
 pop=(full,nbo)
 ----------------------------------------------------------------------
 1/14=-1,18=20,19=15,26=4,38=1,57=2/1,3;
 2/9=110,12=2,17=6,18=5,40=1/2;
 3/5=1,6=6,7=101,11=2,16=1,25=1,30=1,71=1,74=-5,75=-5/1,2,3;
 4//1;
 5/5=2,38=5/2;
 6/7=3,28=1,40=1/1,7;
 7//1,2,3,16;
 1/14=-1,18=20,19=15,26=4/3(2);
 2/9=110/2;
 99//99;
 2/9=110/2;
 3/5=1,6=6,7=101,11=2,16=1,25=1,30=1,71=1,74=-5,75=-5/1,2,3;
 4/5=5,16=3,69=1/1;
 5/5=2,38=5/2;
 7//1,2,3,16;
 1/14=-1,18=20,19=15,26=4/3(-5);
 2/9=110/2;
 6/7=3,19=2,28=1,40=1/1,7;
 99/9=1/99;
 -------------------
 Title Card Required
 -------------------
 Symbolic Z-matrix:
 Charge =  0 Multiplicity = 1
 C                    -0.05192  -0.21149   0.11077 
 O                     1.20648  -0.21149   0.11077 
 O                    -1.31032  -0.21149   0.11077 
 

 GradGradGradGradGradGradGradGradGradGradGradGradGradGradGradGradGradGrad
 Berny optimization.
 Initialization pass.
                           ----------------------------
                           !    Initial Parameters    !
                           ! (Angstroms and Degrees)  !
 --------------------------                            --------------------------
 ! Name  Definition              Value          Derivative Info.                !
 --------------------------------------------------------------------------------
 ! R1    R(1,2)                  1.2584         estimate D2E/DX2                !
 ! R2    R(1,3)                  1.2584         estimate D2E/DX2                !
 ! A1    L(2,1,3,-2,-1)        180.0            estimate D2E/DX2                !
 ! A2    L(2,1,3,-3,-2)        180.0            estimate D2E/DX2                !
 --------------------------------------------------------------------------------
 Trust Radius=3.00D-01 FncErr=1.00D-07 GrdErr=1.00D-06
 Number of steps in this run=     20 maximum allowed number of steps=    100.
 GradGradGradGradGradGradGradGradGradGradGradGradGradGradGradGradGradGrad

                          Input orientation:                          
 ---------------------------------------------------------------------
 Center     Atomic      Atomic             Coordinates (Angstroms)
 Number     Number       Type             X           Y           Z
 ---------------------------------------------------------------------
      1          6           0       -0.051918   -0.211487    0.110770
      2          8           0        1.206482   -0.211487    0.110770
      3          8           0       -1.310318   -0.211487    0.110770
 ---------------------------------------------------------------------
                    Distance matrix (angstroms):
                    1          2          3
     1  C    0.000000
     2  O    1.258400   0.000000
     3  O    1.258400   2.516800   0.000000
 Stoichiometry    CO2
 Framework group  D*H[O(C),C*(O.O)]
 Deg. of freedom     1
 Full point group                 D*H     NOp   8
 Largest Abelian subgroup         D2H     NOp   8
 Largest concise Abelian subgroup C2      NOp   2
                         Standard orientation:                         
 ---------------------------------------------------------------------
 Center     Atomic      Atomic             Coordinates (Angstroms)
 Number     Number       Type             X           Y           Z
 ---------------------------------------------------------------------
      1          6           0        0.000000    0.000000    0.000000
      2          8           0        0.000000    0.000000    1.258400
      3          8           0        0.000000    0.000000   -1.258400
 ---------------------------------------------------------------------
 Rotational constants (GHZ):      0.0000000      9.9762622      9.9762622
 Standard basis: 6-31G(d,p) (6D, 7F)
 There are    14 symmetry adapted cartesian basis functions of AG  symmetry.
 There are     2 symmetry adapted cartesian basis functions of B1G symmetry.
 There are     4 symmetry adapted cartesian basis functions of B2G symmetry.
 There are     4 symmetry adapted cartesian basis functions of B3G symmetry.
 There are     1 symmetry adapted cartesian basis functions of AU  symmetry.
 There are    10 symmetry adapted cartesian basis functions of B1U symmetry.
 There are     5 symmetry adapted cartesian basis functions of B2U symmetry.
 There are     5 symmetry adapted cartesian basis functions of B3U symmetry.
 There are    14 symmetry adapted basis functions of AG  symmetry.
 There are     2 symmetry adapted basis functions of B1G symmetry.
 There are     4 symmetry adapted basis functions of B2G symmetry.
 There are     4 symmetry adapted basis functions of B3G symmetry.
 There are     1 symmetry adapted basis functions of AU  symmetry.
 There are    10 symmetry adapted basis functions of B1U symmetry.
 There are     5 symmetry adapted basis functions of B2U symmetry.
 There are     5 symmetry adapted basis functions of B3U symmetry.
    45 basis functions,    84 primitive gaussians,    45 cartesian basis functions
    11 alpha electrons       11 beta electrons
       nuclear repulsion energy        53.8260352031 Hartrees.
 NAtoms=    3 NActive=    3 NUniq=    2 SFac= 2.25D+00 NAtFMM=   60 NAOKFM=F Big=F
 Integral buffers will be    131072 words long.
 Raffenetti 2 integral format.
 Two-electron integral symmetry is turned on.
 One-electron integrals computed using PRISM.
 NBasis=    45 RedAO= T EigKep=  4.90D-03  NBF=    14     2     4     4     1    10     5     5
 NBsUse=    45 1.00D-06 EigRej= -1.00D+00 NBFU=    14     2     4     4     1    10     5     5
 ExpMin= 1.69D-01 ExpMax= 5.48D+03 ExpMxC= 8.25D+02 IAcc=3 IRadAn=         5 AccDes= 0.00D+00
 Harris functional with IExCor=  402 and IRadAn=       5 diagonalized for initial guess.
 HarFok:  IExCor=  402 AccDes= 0.00D+00 IRadAn=         5 IDoV= 1 UseB2=F ITyADJ=14
 ICtDFT=  3500011 ScaDFX=  1.000000  1.000000  1.000000  1.000000
 FoFCou: FMM=F IPFlag=           0 FMFlag=      100000 FMFlg1=           0
         NFxFlg=           0 DoJE=T BraDBF=F KetDBF=T FulRan=T
         wScrn=  0.000000 ICntrl=     500 IOpCl=  0 I1Cent=   200000004 NGrid=           0
         NMat0=    1 NMatS0=      1 NMatT0=    0 NMatD0=    1 NMtDS0=    0 NMtDT0=    0
 Petite list used in FoFCou.
 Initial guess orbital symmetries:
       Occupied  (SGU) (SGG) (SGG) (SGG) (SGU) (SGG) (SGU) (PIU)
                 (PIU) (PIG) (PIG)
       Virtual   (PIU) (PIU) (SGG) (SGU) (PIU) (PIU) (SGG) (SGU)
                 (SGG) (PIG) (PIG) (SGU) (PIU) (PIU) (SGG) (PIG)
                 (PIG) (DLTG) (DLTG) (DLTU) (DLTU) (SGU) (DLTG)
                 (DLTG) (PIU) (PIU) (SGG) (SGU) (PIG) (PIG) (SGG)
                 (SGG) (SGG) (SGU)
 The electronic state of the initial guess is 1-SGG.
 Keep R1 ints in memory in symmetry-blocked form, NReq=1434024.
 Requested convergence on RMS density matrix=1.00D-08 within 128 cycles.
 Requested convergence on MAX density matrix=1.00D-06.
 Requested convergence on             energy=1.00D-06.
 No special actions if energy rises.
 Integral accuracy reduced to 1.0D-05 until final iterations.
 Initial convergence to 1.0D-05 achieved.  Increase integral accuracy.
 SCF Done:  E(RB3LYP) =  -188.554509922     A.U. after   10 cycles
            NFock= 10  Conv=0.47D-08     -V/T= 2.0123

 **********************************************************************

            Population analysis using the SCF density.

 **********************************************************************

 Orbital symmetries:
       Occupied  (SGU) (SGG) (SGG) (SGG) (SGU) (SGG) (SGU) (PIU)
                 (PIU) (PIG) (PIG)
       Virtual   (PIU) (PIU) (SGG) (SGU) (PIU) (PIU) (SGG) (SGU)
                 (SGG) (PIG) (PIG) (SGU) (PIU) (PIU) (SGG) (PIG)
                 (PIG) (DLTG) (DLTG) (DLTU) (DLTU) (SGU) (DLTG)
                 (DLTG) (PIU) (PIU) (SGG) (PIG) (PIG) (SGU) (SGG)
                 (SGG) (SGG) (SGU)
 The electronic state is 1-SGG.
 Alpha  occ. eigenvalues --  -19.25383 -19.25382 -10.41523  -1.12048  -1.08065
 Alpha  occ. eigenvalues --   -0.57807  -0.51282  -0.48450  -0.48450  -0.36678
 Alpha  occ. eigenvalues --   -0.36678
 Alpha virt. eigenvalues --   -0.02598  -0.02598   0.03157   0.37237   0.48321
 Alpha virt. eigenvalues --    0.48321   0.53626   0.62065   0.78864   0.86740
 Alpha virt. eigenvalues --    0.86740   0.93378   1.01873   1.01873   1.33253
 Alpha virt. eigenvalues --    1.34906   1.34906   1.42890   1.42890   1.73357
 Alpha virt. eigenvalues --    1.73357   1.81738   1.95566   1.95566   2.00447
 Alpha virt. eigenvalues --    2.00447   2.42736   2.79502   2.79502   2.80677
 Alpha virt. eigenvalues --    2.95986   3.63312   4.25172   4.35548
     Molecular Orbital Coefficients:
                           1         2         3         4         5
                       (SGU)--O  (SGG)--O  (SGG)--O  (SGG)--O  (SGU)--O
     Eigenvalues --   -19.25383 -19.25382 -10.41523  -1.12048  -1.08065
   1 1   C  1S          0.00000  -0.00005   0.99294  -0.13984   0.00000
   2        2S          0.00000   0.00081   0.04704   0.28445   0.00000
   3        2PX         0.00000   0.00000   0.00000   0.00000   0.00000
   4        2PY         0.00000   0.00000   0.00000   0.00000   0.00000
   5        2PZ         0.00024   0.00000   0.00000   0.00000   0.29211
   6        3S          0.00000  -0.00372  -0.00260   0.06140   0.00000
   7        3PX         0.00000   0.00000   0.00000   0.00000   0.00000
   8        3PY         0.00000   0.00000   0.00000   0.00000   0.00000
   9        3PZ        -0.00630   0.00000   0.00000   0.00000  -0.04515
  10        4XX         0.00000  -0.00010  -0.00976  -0.02546   0.00000
  11        4YY         0.00000  -0.00010  -0.00976  -0.02546   0.00000
  12        4ZZ         0.00000  -0.00172  -0.00668   0.03394   0.00000
  13        4XY         0.00000   0.00000   0.00000   0.00000   0.00000
  14        4XZ         0.00000   0.00000   0.00000   0.00000   0.00000
  15        4YZ         0.00000   0.00000   0.00000   0.00000   0.00000
  16 2   O  1S          0.70191   0.70209  -0.00013  -0.13570  -0.14902
  17        2S          0.01755   0.01829   0.00012   0.30138   0.33119
  18        2PX         0.00000   0.00000   0.00000   0.00000   0.00000
  19        2PY         0.00000   0.00000   0.00000   0.00000   0.00000
  20        2PZ        -0.00067  -0.00106   0.00036  -0.11232  -0.11278
  21        3S          0.01265   0.00815  -0.00160   0.27411   0.32624
  22        3PX         0.00000   0.00000   0.00000   0.00000   0.00000
  23        3PY         0.00000   0.00000   0.00000   0.00000   0.00000
  24        3PZ        -0.00156  -0.00115   0.00210  -0.04993  -0.03927
  25        4XX        -0.00598  -0.00556   0.00026  -0.00649  -0.00651
  26        4YY        -0.00598  -0.00556   0.00026  -0.00649  -0.00651
  27        4ZZ        -0.00591  -0.00474  -0.00102   0.00967   0.00667
  28        4XY         0.00000   0.00000   0.00000   0.00000   0.00000
  29        4XZ         0.00000   0.00000   0.00000   0.00000   0.00000
  30        4YZ         0.00000   0.00000   0.00000   0.00000   0.00000
  31 3   O  1S         -0.70191   0.70209  -0.00013  -0.13570   0.14902
  32        2S         -0.01755   0.01829   0.00012   0.30138  -0.33119
  33        2PX         0.00000   0.00000   0.00000   0.00000   0.00000
  34        2PY         0.00000   0.00000   0.00000   0.00000   0.00000
  35        2PZ        -0.00067   0.00106  -0.00036   0.11232  -0.11278
  36        3S         -0.01265   0.00815  -0.00160   0.27411  -0.32624
  37        3PX         0.00000   0.00000   0.00000   0.00000   0.00000
  38        3PY         0.00000   0.00000   0.00000   0.00000   0.00000
  39        3PZ        -0.00156   0.00115  -0.00210   0.04993  -0.03927
  40        4XX         0.00598  -0.00556   0.00026  -0.00649   0.00651
  41        4YY         0.00598  -0.00556   0.00026  -0.00649   0.00651
  42        4ZZ         0.00591  -0.00474  -0.00102   0.00967  -0.00667
  43        4XY         0.00000   0.00000   0.00000   0.00000   0.00000
  44        4XZ         0.00000   0.00000   0.00000   0.00000   0.00000
  45        4YZ         0.00000   0.00000   0.00000   0.00000   0.00000
                           6         7         8         9        10
                       (SGG)--O  (SGU)--O  (PIU)--O  (PIU)--O  (PIG)--O
     Eigenvalues --    -0.57807  -0.51282  -0.48450  -0.48450  -0.36678
   1 1   C  1S         -0.14328   0.00000   0.00000   0.00000   0.00000
   2        2S          0.34891   0.00000   0.00000   0.00000   0.00000
   3        2PX         0.00000   0.00000   0.00000   0.39066   0.00000
   4        2PY         0.00000   0.00000   0.39066   0.00000   0.00000
   5        2PZ         0.00000  -0.36704   0.00000   0.00000   0.00000
   6        3S          0.25124   0.00000   0.00000   0.00000   0.00000
   7        3PX         0.00000   0.00000   0.00000   0.17749   0.00000
   8        3PY         0.00000   0.00000   0.17749   0.00000   0.00000
   9        3PZ         0.00000  -0.01108   0.00000   0.00000   0.00000
  10        4XX        -0.01297   0.00000   0.00000   0.00000   0.00000
  11        4YY        -0.01297   0.00000   0.00000   0.00000   0.00000
  12        4ZZ        -0.01420   0.00000   0.00000   0.00000   0.00000
  13        4XY         0.00000   0.00000   0.00000   0.00000   0.00000
  14        4XZ         0.00000   0.00000   0.00000   0.00000   0.00000
  15        4YZ         0.00000   0.00000   0.00000   0.00000   0.05166
  16 2   O  1S          0.09518  -0.06837   0.00000   0.00000   0.00000
  17        2S         -0.21404   0.14916   0.00000   0.00000   0.00000
  18        2PX         0.00000   0.00000   0.00000   0.35506   0.00000
  19        2PY         0.00000   0.00000   0.35506   0.00000   0.47240
  20        2PZ        -0.30667   0.39029   0.00000   0.00000   0.00000
  21        3S         -0.34338   0.26595   0.00000   0.00000   0.00000
  22        3PX         0.00000   0.00000   0.00000   0.20339   0.00000
  23        3PY         0.00000   0.00000   0.20339   0.00000   0.32989
  24        3PZ        -0.15394   0.19328   0.00000   0.00000   0.00000
  25        4XX        -0.00081   0.00109   0.00000   0.00000   0.00000
  26        4YY        -0.00081   0.00109   0.00000   0.00000   0.00000
  27        4ZZ         0.02845  -0.02289   0.00000   0.00000   0.00000
  28        4XY         0.00000   0.00000   0.00000   0.00000   0.00000
  29        4XZ         0.00000   0.00000   0.00000  -0.02651   0.00000
  30        4YZ         0.00000   0.00000  -0.02651   0.00000  -0.02148
  31 3   O  1S          0.09518   0.06837   0.00000   0.00000   0.00000
  32        2S         -0.21404  -0.14916   0.00000   0.00000   0.00000
  33        2PX         0.00000   0.00000   0.00000   0.35506   0.00000
  34        2PY         0.00000   0.00000   0.35506   0.00000  -0.47240
  35        2PZ         0.30667   0.39029   0.00000   0.00000   0.00000
  36        3S         -0.34338  -0.26595   0.00000   0.00000   0.00000
  37        3PX         0.00000   0.00000   0.00000   0.20339   0.00000
  38        3PY         0.00000   0.00000   0.20339   0.00000  -0.32989
  39        3PZ         0.15394   0.19328   0.00000   0.00000   0.00000
  40        4XX        -0.00081  -0.00109   0.00000   0.00000   0.00000
  41        4YY        -0.00081  -0.00109   0.00000   0.00000   0.00000
  42        4ZZ         0.02845   0.02289   0.00000   0.00000   0.00000
  43        4XY         0.00000   0.00000   0.00000   0.00000   0.00000
  44        4XZ         0.00000   0.00000   0.00000   0.02651   0.00000
  45        4YZ         0.00000   0.00000   0.02651   0.00000  -0.02148
                          11        12        13        14        15
                       (PIG)--O  (PIU)--V  (PIU)--V  (SGG)--V  (SGU)--V
     Eigenvalues --    -0.36678  -0.02598  -0.02598   0.03157   0.37237
   1 1   C  1S          0.00000   0.00000   0.00000  -0.13024   0.00000
   2        2S          0.00000   0.00000   0.00000   0.15023   0.00000
   3        2PX         0.00000   0.60273   0.00000   0.00000   0.00000
   4        2PY         0.00000   0.00000   0.60273   0.00000   0.00000
   5        2PZ         0.00000   0.00000   0.00000   0.00000   0.09104
   6        3S          0.00000   0.00000   0.00000   1.71661   0.00000
   7        3PX         0.00000   0.51623   0.00000   0.00000   0.00000
   8        3PY         0.00000   0.00000   0.51623   0.00000   0.00000
   9        3PZ         0.00000   0.00000   0.00000   0.00000   3.91708
  10        4XX         0.00000   0.00000   0.00000   0.02176   0.00000
  11        4YY         0.00000   0.00000   0.00000   0.02176   0.00000
  12        4ZZ         0.00000   0.00000   0.00000  -0.06965   0.00000
  13        4XY         0.00000   0.00000   0.00000   0.00000   0.00000
  14        4XZ         0.05166   0.00000   0.00000   0.00000   0.00000
  15        4YZ         0.00000   0.00000   0.00000   0.00000   0.00000
  16 2   O  1S          0.00000   0.00000   0.00000   0.06602   0.10314
  17        2S          0.00000   0.00000   0.00000  -0.17012  -0.07286
  18        2PX         0.47240  -0.36538   0.00000   0.00000   0.00000
  19        2PY         0.00000   0.00000  -0.36538   0.00000   0.00000
  20        2PZ         0.00000   0.00000   0.00000   0.35774  -0.05153
  21        3S          0.00000   0.00000   0.00000  -0.60121  -2.66097
  22        3PX         0.32989  -0.34316   0.00000   0.00000   0.00000
  23        3PY         0.00000   0.00000  -0.34316   0.00000   0.00000
  24        3PZ         0.00000   0.00000   0.00000   0.48755   0.97092
  25        4XX         0.00000   0.00000   0.00000   0.00908   0.07171
  26        4YY         0.00000   0.00000   0.00000   0.00908   0.07171
  27        4ZZ         0.00000   0.00000   0.00000  -0.01579  -0.00814
  28        4XY         0.00000   0.00000   0.00000   0.00000   0.00000
  29        4XZ        -0.02148  -0.01262   0.00000   0.00000   0.00000
  30        4YZ         0.00000   0.00000  -0.01262   0.00000   0.00000
  31 3   O  1S          0.00000   0.00000   0.00000   0.06602  -0.10314
  32        2S          0.00000   0.00000   0.00000  -0.17012   0.07286
  33        2PX        -0.47240  -0.36538   0.00000   0.00000   0.00000
  34        2PY         0.00000   0.00000  -0.36538   0.00000   0.00000
  35        2PZ         0.00000   0.00000   0.00000  -0.35774  -0.05153
  36        3S          0.00000   0.00000   0.00000  -0.60121   2.66097
  37        3PX        -0.32989  -0.34316   0.00000   0.00000   0.00000
  38        3PY         0.00000   0.00000  -0.34316   0.00000   0.00000
  39        3PZ         0.00000   0.00000   0.00000  -0.48755   0.97092
  40        4XX         0.00000   0.00000   0.00000   0.00908  -0.07171
  41        4YY         0.00000   0.00000   0.00000   0.00908  -0.07171
  42        4ZZ         0.00000   0.00000   0.00000  -0.01579   0.00814
  43        4XY         0.00000   0.00000   0.00000   0.00000   0.00000
  44        4XZ        -0.02148   0.01262   0.00000   0.00000   0.00000
  45        4YZ         0.00000   0.00000   0.01262   0.00000   0.00000
                          16        17        18        19        20
                       (PIU)--V  (PIU)--V  (SGG)--V  (SGU)--V  (SGG)--V
     Eigenvalues --     0.48321   0.48321   0.53626   0.62065   0.78864
   1 1   C  1S          0.00000   0.00000   0.08611   0.00000   0.04190
   2        2S          0.00000   0.00000  -1.34576   0.00000   0.74653
   3        2PX        -0.94907   0.00000   0.00000   0.00000   0.00000
   4        2PY         0.00000  -0.94907   0.00000   0.00000   0.00000
   5        2PZ         0.00000   0.00000   0.00000   1.16682   0.00000
   6        3S          0.00000   0.00000   2.06869   0.00000  -0.04145
   7        3PX         1.29323   0.00000   0.00000   0.00000   0.00000
   8        3PY         0.00000   1.29323   0.00000   0.00000   0.00000
   9        3PZ         0.00000   0.00000   0.00000  -0.36069   0.00000
  10        4XX         0.00000   0.00000  -0.11429   0.00000  -0.02146
  11        4YY         0.00000   0.00000  -0.11429   0.00000  -0.02146
  12        4ZZ         0.00000   0.00000   0.17241   0.00000   0.35669
  13        4XY         0.00000   0.00000   0.00000   0.00000   0.00000
  14        4XZ         0.00000   0.00000   0.00000   0.00000   0.00000
  15        4YZ         0.00000   0.00000   0.00000   0.00000   0.00000
  16 2   O  1S          0.00000   0.00000  -0.00333   0.04834   0.01057
  17        2S          0.00000   0.00000  -0.04594  -0.24255  -0.41070
  18        2PX        -0.13001   0.00000   0.00000   0.00000   0.00000
  19        2PY         0.00000  -0.13001   0.00000   0.00000   0.00000
  20        2PZ         0.00000   0.00000  -0.30057   0.24876  -0.40504
  21        3S          0.00000   0.00000  -0.37318   0.01543   0.46906
  22        3PX        -0.13331   0.00000   0.00000   0.00000   0.00000
  23        3PY         0.00000  -0.13331   0.00000   0.00000   0.00000
  24        3PZ         0.00000   0.00000   0.32009   0.47864   0.90972
  25        4XX         0.00000   0.00000   0.02093  -0.07543  -0.14150
  26        4YY         0.00000   0.00000   0.02093  -0.07543  -0.14150
  27        4ZZ         0.00000   0.00000  -0.18752   0.07986  -0.20789
  28        4XY         0.00000   0.00000   0.00000   0.00000   0.00000
  29        4XZ         0.05281   0.00000   0.00000   0.00000   0.00000
  30        4YZ         0.00000   0.05281   0.00000   0.00000   0.00000
  31 3   O  1S          0.00000   0.00000  -0.00333  -0.04834   0.01057
  32        2S          0.00000   0.00000  -0.04594   0.24255  -0.41070
  33        2PX        -0.13001   0.00000   0.00000   0.00000   0.00000
  34        2PY         0.00000  -0.13001   0.00000   0.00000   0.00000
  35        2PZ         0.00000   0.00000   0.30057   0.24876   0.40504
  36        3S          0.00000   0.00000  -0.37318  -0.01543   0.46906
  37        3PX        -0.13331   0.00000   0.00000   0.00000   0.00000
  38        3PY         0.00000  -0.13331   0.00000   0.00000   0.00000
  39        3PZ         0.00000   0.00000  -0.32009   0.47864  -0.90972
  40        4XX         0.00000   0.00000   0.02093   0.07543  -0.14150
  41        4YY         0.00000   0.00000   0.02093   0.07543  -0.14150
  42        4ZZ         0.00000   0.00000  -0.18752  -0.07986  -0.20789
  43        4XY         0.00000   0.00000   0.00000   0.00000   0.00000
  44        4XZ        -0.05281   0.00000   0.00000   0.00000   0.00000
  45        4YZ         0.00000  -0.05281   0.00000   0.00000   0.00000
                          21        22        23        24        25
                       (PIG)--V  (PIG)--V  (SGU)--V  (PIU)--V  (PIU)--V
     Eigenvalues --     0.86740   0.86740   0.93378   1.01873   1.01873
   1 1   C  1S          0.00000   0.00000   0.00000   0.00000   0.00000
   2        2S          0.00000   0.00000   0.00000   0.00000   0.00000
   3        2PX         0.00000   0.00000   0.00000   0.00000   0.17113
   4        2PY         0.00000   0.00000   0.00000   0.17113   0.00000
   5        2PZ         0.00000   0.00000  -0.06537   0.00000   0.00000
   6        3S          0.00000   0.00000   0.00000   0.00000   0.00000
   7        3PX         0.00000   0.00000   0.00000   0.00000  -0.91195
   8        3PY         0.00000   0.00000   0.00000  -0.91195   0.00000
   9        3PZ         0.00000   0.00000  -0.75301   0.00000   0.00000
  10        4XX         0.00000   0.00000   0.00000   0.00000   0.00000
  11        4YY         0.00000   0.00000   0.00000   0.00000   0.00000
  12        4ZZ         0.00000   0.00000   0.00000   0.00000   0.00000
  13        4XY         0.00000   0.00000   0.00000   0.00000   0.00000
  14        4XZ         0.00000  -0.06144   0.00000   0.00000   0.00000
  15        4YZ        -0.06144   0.00000   0.00000   0.00000   0.00000
  16 2   O  1S          0.00000   0.00000  -0.02607   0.00000   0.00000
  17        2S          0.00000   0.00000  -0.12666   0.00000   0.00000
  18        2PX         0.00000  -0.66527   0.00000   0.00000  -0.64059
  19        2PY        -0.66527   0.00000   0.00000  -0.64059   0.00000
  20        2PZ         0.00000   0.00000  -0.68777   0.00000   0.00000
  21        3S          0.00000   0.00000   0.79827   0.00000   0.00000
  22        3PX         0.00000   0.78376   0.00000   0.00000   1.04603
  23        3PY         0.78376   0.00000   0.00000   1.04603   0.00000
  24        3PZ         0.00000   0.00000   0.65221   0.00000   0.00000
  25        4XX         0.00000   0.00000  -0.09470   0.00000   0.00000
  26        4YY         0.00000   0.00000  -0.09470   0.00000   0.00000
  27        4ZZ         0.00000   0.00000  -0.08070   0.00000   0.00000
  28        4XY         0.00000   0.00000   0.00000   0.00000   0.00000
  29        4XZ         0.00000   0.00270   0.00000   0.00000   0.07750
  30        4YZ         0.00270   0.00000   0.00000   0.07750   0.00000
  31 3   O  1S          0.00000   0.00000   0.02607   0.00000   0.00000
  32        2S          0.00000   0.00000   0.12666   0.00000   0.00000
  33        2PX         0.00000   0.66527   0.00000   0.00000  -0.64059
  34        2PY         0.66527   0.00000   0.00000  -0.64059   0.00000
  35        2PZ         0.00000   0.00000  -0.68777   0.00000   0.00000
  36        3S          0.00000   0.00000  -0.79827   0.00000   0.00000
  37        3PX         0.00000  -0.78376   0.00000   0.00000   1.04603
  38        3PY        -0.78376   0.00000   0.00000   1.04603   0.00000
  39        3PZ         0.00000   0.00000   0.65221   0.00000   0.00000
  40        4XX         0.00000   0.00000   0.09470   0.00000   0.00000
  41        4YY         0.00000   0.00000   0.09470   0.00000   0.00000
  42        4ZZ         0.00000   0.00000   0.08070   0.00000   0.00000
  43        4XY         0.00000   0.00000   0.00000   0.00000   0.00000
  44        4XZ         0.00000   0.00270   0.00000   0.00000  -0.07750
  45        4YZ         0.00270   0.00000   0.00000  -0.07750   0.00000
                          26        27        28        29        30
                       (SGG)--V  (PIG)--V  (PIG)--V  (DLTG)--  (DLTG)--
     Eigenvalues --     1.33253   1.34906   1.34906   1.42890   1.42890
   1 1   C  1S          0.03544   0.00000   0.00000   0.00000   0.00000
   2        2S          0.08345   0.00000   0.00000   0.00000   0.00000
   3        2PX         0.00000   0.00000   0.00000   0.00000   0.00000
   4        2PY         0.00000   0.00000   0.00000   0.00000   0.00000
   5        2PZ         0.00000   0.00000   0.00000   0.00000   0.00000
   6        3S          3.27230   0.00000   0.00000   0.00000   0.00000
   7        3PX         0.00000   0.00000   0.00000   0.00000   0.00000
   8        3PY         0.00000   0.00000   0.00000   0.00000   0.00000
   9        3PZ         0.00000   0.00000   0.00000   0.00000   0.00000
  10        4XX        -0.13469   0.00000   0.00000   0.00000   0.66405
  11        4YY        -0.13469   0.00000   0.00000   0.00000  -0.66405
  12        4ZZ         0.33815   0.00000   0.00000   0.00000   0.00000
  13        4XY         0.00000   0.00000   0.00000   0.76678   0.00000
  14        4XZ         0.00000   0.00000   0.57839   0.00000   0.00000
  15        4YZ         0.00000   0.57839   0.00000   0.00000   0.00000
  16 2   O  1S          0.06424   0.00000   0.00000   0.00000   0.00000
  17        2S          1.11700   0.00000   0.00000   0.00000   0.00000
  18        2PX         0.00000   0.00000  -0.09330   0.00000   0.00000
  19        2PY         0.00000  -0.09330   0.00000   0.00000   0.00000
  20        2PZ        -0.16062   0.00000   0.00000   0.00000   0.00000
  21        3S         -3.13219   0.00000   0.00000   0.00000   0.00000
  22        3PX         0.00000   0.00000  -0.10913   0.00000   0.00000
  23        3PY         0.00000  -0.10913   0.00000   0.00000   0.00000
  24        3PZ         1.30679   0.00000   0.00000   0.00000   0.00000
  25        4XX         0.21080   0.00000   0.00000   0.00000   0.32996
  26        4YY         0.21080   0.00000   0.00000   0.00000  -0.32996
  27        4ZZ         0.38358   0.00000   0.00000   0.00000   0.00000
  28        4XY         0.00000   0.00000   0.00000   0.38100   0.00000
  29        4XZ         0.00000   0.00000  -0.41485   0.00000   0.00000
  30        4YZ         0.00000  -0.41485   0.00000   0.00000   0.00000
  31 3   O  1S          0.06424   0.00000   0.00000   0.00000   0.00000
  32        2S          1.11700   0.00000   0.00000   0.00000   0.00000
  33        2PX         0.00000   0.00000   0.09330   0.00000   0.00000
  34        2PY         0.00000   0.09330   0.00000   0.00000   0.00000
  35        2PZ         0.16062   0.00000   0.00000   0.00000   0.00000
  36        3S         -3.13219   0.00000   0.00000   0.00000   0.00000
  37        3PX         0.00000   0.00000   0.10913   0.00000   0.00000
  38        3PY         0.00000   0.10913   0.00000   0.00000   0.00000
  39        3PZ        -1.30679   0.00000   0.00000   0.00000   0.00000
  40        4XX         0.21080   0.00000   0.00000   0.00000   0.32996
  41        4YY         0.21080   0.00000   0.00000   0.00000  -0.32996
  42        4ZZ         0.38358   0.00000   0.00000   0.00000   0.00000
  43        4XY         0.00000   0.00000   0.00000   0.38100   0.00000
  44        4XZ         0.00000   0.00000  -0.41485   0.00000   0.00000
  45        4YZ         0.00000  -0.41485   0.00000   0.00000   0.00000
                          31        32        33        34        35
                       (DLTU)--  (DLTU)--  (SGU)--V  (DLTG)--  (DLTG)--
     Eigenvalues --     1.73357   1.73357   1.81738   1.95566   1.95566
   1 1   C  1S          0.00000   0.00000   0.00000   0.00000   0.00000
   2        2S          0.00000   0.00000   0.00000   0.00000   0.00000
   3        2PX         0.00000   0.00000   0.00000   0.00000   0.00000
   4        2PY         0.00000   0.00000   0.00000   0.00000   0.00000
   5        2PZ         0.00000   0.00000  -0.09384   0.00000   0.00000
   6        3S          0.00000   0.00000   0.00000   0.00000   0.00000
   7        3PX         0.00000   0.00000   0.00000   0.00000   0.00000
   8        3PY         0.00000   0.00000   0.00000   0.00000   0.00000
   9        3PZ         0.00000   0.00000  -5.06614   0.00000   0.00000
  10        4XX         0.00000   0.00000   0.00000   0.00000   0.57067
  11        4YY         0.00000   0.00000   0.00000   0.00000  -0.57067
  12        4ZZ         0.00000   0.00000   0.00000   0.00000   0.00000
  13        4XY         0.00000   0.00000   0.00000   0.65895   0.00000
  14        4XZ         0.00000   0.00000   0.00000   0.00000   0.00000
  15        4YZ         0.00000   0.00000   0.00000   0.00000   0.00000
  16 2   O  1S          0.00000   0.00000  -0.07697   0.00000   0.00000
  17        2S          0.00000   0.00000  -1.53506   0.00000   0.00000
  18        2PX         0.00000   0.00000   0.00000   0.00000   0.00000
  19        2PY         0.00000   0.00000   0.00000   0.00000   0.00000
  20        2PZ         0.00000   0.00000   0.13350   0.00000   0.00000
  21        3S          0.00000   0.00000   5.58423   0.00000   0.00000
  22        3PX         0.00000   0.00000   0.00000   0.00000   0.00000
  23        3PY         0.00000   0.00000   0.00000   0.00000   0.00000
  24        3PZ         0.00000   0.00000  -1.47383   0.00000   0.00000
  25        4XX         0.61241   0.00000  -0.14083   0.00000  -0.52383
  26        4YY        -0.61241   0.00000  -0.14083   0.00000   0.52383
  27        4ZZ         0.00000   0.00000  -0.55904   0.00000   0.00000
  28        4XY         0.00000   0.70715   0.00000  -0.60487   0.00000
  29        4XZ         0.00000   0.00000   0.00000   0.00000   0.00000
  30        4YZ         0.00000   0.00000   0.00000   0.00000   0.00000
  31 3   O  1S          0.00000   0.00000   0.07697   0.00000   0.00000
  32        2S          0.00000   0.00000   1.53506   0.00000   0.00000
  33        2PX         0.00000   0.00000   0.00000   0.00000   0.00000
  34        2PY         0.00000   0.00000   0.00000   0.00000   0.00000
  35        2PZ         0.00000   0.00000   0.13350   0.00000   0.00000
  36        3S          0.00000   0.00000  -5.58423   0.00000   0.00000
  37        3PX         0.00000   0.00000   0.00000   0.00000   0.00000
  38        3PY         0.00000   0.00000   0.00000   0.00000   0.00000
  39        3PZ         0.00000   0.00000  -1.47383   0.00000   0.00000
  40        4XX        -0.61241   0.00000   0.14083   0.00000  -0.52383
  41        4YY         0.61241   0.00000   0.14083   0.00000   0.52383
  42        4ZZ         0.00000   0.00000   0.55904   0.00000   0.00000
  43        4XY         0.00000  -0.70715   0.00000  -0.60487   0.00000
  44        4XZ         0.00000   0.00000   0.00000   0.00000   0.00000
  45        4YZ         0.00000   0.00000   0.00000   0.00000   0.00000
                          36        37        38        39        40
                       (PIU)--V  (PIU)--V  (SGG)--V  (PIG)--V  (PIG)--V
     Eigenvalues --     2.00447   2.00447   2.42736   2.79502   2.79502
   1 1   C  1S          0.00000   0.00000  -0.14589   0.00000   0.00000
   2        2S          0.00000   0.00000  -0.42619   0.00000   0.00000
   3        2PX         0.35066   0.00000   0.00000   0.00000   0.00000
   4        2PY         0.00000   0.35066   0.00000   0.00000   0.00000
   5        2PZ         0.00000   0.00000   0.00000   0.00000   0.00000
   6        3S          0.00000   0.00000  -0.50919   0.00000   0.00000
   7        3PX         0.37966   0.00000   0.00000   0.00000   0.00000
   8        3PY         0.00000   0.37966   0.00000   0.00000   0.00000
   9        3PZ         0.00000   0.00000   0.00000   0.00000   0.00000
  10        4XX         0.00000   0.00000  -0.61253   0.00000   0.00000
  11        4YY         0.00000   0.00000  -0.61253   0.00000   0.00000
  12        4ZZ         0.00000   0.00000   0.31054   0.00000   0.00000
  13        4XY         0.00000   0.00000   0.00000   0.00000   0.00000
  14        4XZ         0.00000   0.00000   0.00000   0.00000   1.15043
  15        4YZ         0.00000   0.00000   0.00000   1.15043   0.00000
  16 2   O  1S          0.00000   0.00000   0.00776   0.00000   0.00000
  17        2S          0.00000   0.00000  -0.70202   0.00000   0.00000
  18        2PX         0.14063   0.00000   0.00000   0.00000  -0.05346
  19        2PY         0.00000   0.14063   0.00000  -0.05346   0.00000
  20        2PZ         0.00000   0.00000   0.37906   0.00000   0.00000
  21        3S          0.00000   0.00000   1.05461   0.00000   0.00000
  22        3PX        -0.36217   0.00000   0.00000   0.00000  -0.27025
  23        3PY         0.00000  -0.36217   0.00000  -0.27025   0.00000
  24        3PZ         0.00000   0.00000  -0.79734   0.00000   0.00000
  25        4XX         0.00000   0.00000  -0.27225   0.00000   0.00000
  26        4YY         0.00000   0.00000  -0.27225   0.00000   0.00000
  27        4ZZ         0.00000   0.00000   0.47538   0.00000   0.00000
  28        4XY         0.00000   0.00000   0.00000   0.00000   0.00000
  29        4XZ         0.76234   0.00000   0.00000   0.00000   0.74727
  30        4YZ         0.00000   0.76234   0.00000   0.74727   0.00000
  31 3   O  1S          0.00000   0.00000   0.00776   0.00000   0.00000
  32        2S          0.00000   0.00000  -0.70202   0.00000   0.00000
  33        2PX         0.14063   0.00000   0.00000   0.00000   0.05346
  34        2PY         0.00000   0.14063   0.00000   0.05346   0.00000
  35        2PZ         0.00000   0.00000  -0.37906   0.00000   0.00000
  36        3S          0.00000   0.00000   1.05461   0.00000   0.00000
  37        3PX        -0.36217   0.00000   0.00000   0.00000   0.27025
  38        3PY         0.00000  -0.36217   0.00000   0.27025   0.00000
  39        3PZ         0.00000   0.00000   0.79734   0.00000   0.00000
  40        4XX         0.00000   0.00000  -0.27225   0.00000   0.00000
  41        4YY         0.00000   0.00000  -0.27225   0.00000   0.00000
  42        4ZZ         0.00000   0.00000   0.47538   0.00000   0.00000
  43        4XY         0.00000   0.00000   0.00000   0.00000   0.00000
  44        4XZ        -0.76234   0.00000   0.00000   0.00000   0.74727
  45        4YZ         0.00000  -0.76234   0.00000   0.74727   0.00000
                          41        42        43        44        45
                       (SGU)--V  (SGG)--V  (SGG)--V  (SGG)--V  (SGU)--V
     Eigenvalues --     2.80677   2.95986   3.63312   4.25172   4.35548
   1 1   C  1S          0.00000  -0.09602  -0.02482   0.46531   0.00000
   2        2S          0.00000   2.13695  -0.50564  -2.47475   0.00000
   3        2PX         0.00000   0.00000   0.00000   0.00000   0.00000
   4        2PY         0.00000   0.00000   0.00000   0.00000   0.00000
   5        2PZ        -1.55262   0.00000   0.00000   0.00000  -0.27037
   6        3S          0.00000   1.76755  -2.34199   0.48261   0.00000
   7        3PX         0.00000   0.00000   0.00000   0.00000   0.00000
   8        3PY         0.00000   0.00000   0.00000   0.00000   0.00000
   9        3PZ        -2.10188   0.00000   0.00000   0.00000  -5.42605
  10        4XX         0.00000  -1.01166   0.10100   1.42160   0.00000
  11        4YY         0.00000  -1.01166   0.10100   1.42160   0.00000
  12        4ZZ         0.00000   1.06108   0.21881   3.03748   0.00000
  13        4XY         0.00000   0.00000   0.00000   0.00000   0.00000
  14        4XZ         0.00000   0.00000   0.00000   0.00000   0.00000
  15        4YZ         0.00000   0.00000   0.00000   0.00000   0.00000
  16 2   O  1S         -0.02758   0.00090  -0.36258   0.03648  -0.47750
  17        2S         -0.83057   0.29679  -0.14078   0.01418  -0.86319
  18        2PX         0.00000   0.00000   0.00000   0.00000   0.00000
  19        2PY         0.00000   0.00000   0.00000   0.00000   0.00000
  20        2PZ        -0.01088   0.37775   0.21111   0.43566   0.20102
  21        3S          2.83236  -1.31612   3.67315  -0.95261   7.96838
  22        3PX         0.00000   0.00000   0.00000   0.00000   0.00000
  23        3PY         0.00000   0.00000   0.00000   0.00000   0.00000
  24        3PZ        -1.34420   1.01415  -0.93940   0.84075  -1.82347
  25        4XX        -0.43703   0.29079  -1.30430   0.24049  -1.59746
  26        4YY        -0.43703   0.29079  -1.30430   0.24049  -1.59746
  27        4ZZ         0.89638  -1.11934  -0.95130  -0.70510  -1.33423
  28        4XY         0.00000   0.00000   0.00000   0.00000   0.00000
  29        4XZ         0.00000   0.00000   0.00000   0.00000   0.00000
  30        4YZ         0.00000   0.00000   0.00000   0.00000   0.00000
  31 3   O  1S          0.02758   0.00090  -0.36258   0.03648   0.47750
  32        2S          0.83057   0.29679  -0.14078   0.01418   0.86319
  33        2PX         0.00000   0.00000   0.00000   0.00000   0.00000
  34        2PY         0.00000   0.00000   0.00000   0.00000   0.00000
  35        2PZ        -0.01088  -0.37775  -0.21111  -0.43566   0.20102
  36        3S         -2.83236  -1.31612   3.67315  -0.95261  -7.96838
  37        3PX         0.00000   0.00000   0.00000   0.00000   0.00000
  38        3PY         0.00000   0.00000   0.00000   0.00000   0.00000
  39        3PZ        -1.34420  -1.01415   0.93940  -0.84075  -1.82347
  40        4XX         0.43703   0.29079  -1.30430   0.24049   1.59746
  41        4YY         0.43703   0.29079  -1.30430   0.24049   1.59746
  42        4ZZ        -0.89638  -1.11934  -0.95130  -0.70510   1.33423
  43        4XY         0.00000   0.00000   0.00000   0.00000   0.00000
  44        4XZ         0.00000   0.00000   0.00000   0.00000   0.00000
  45        4YZ         0.00000   0.00000   0.00000   0.00000   0.00000
     Density Matrix:
                           1         2         3         4         5
   1 1   C  1S          2.05204
   2        2S         -0.08613   0.40974
   3        2PX         0.00000   0.00000   0.30523
   4        2PY         0.00000   0.00000   0.00000   0.30523
   5        2PZ         0.00000   0.00000   0.00000   0.00000   0.44009
   6        3S         -0.09432   0.21000   0.00000   0.00000   0.00000
   7        3PX         0.00000   0.00000   0.13868   0.00000   0.00000
   8        3PY         0.00000   0.00000   0.00000   0.13868   0.00000
   9        3PZ         0.00000   0.00000   0.00000   0.00000  -0.01824
  10        4XX        -0.00855  -0.02445   0.00000   0.00000   0.00000
  11        4YY        -0.00855  -0.02445   0.00000   0.00000   0.00000
  12        4ZZ        -0.01868   0.00877   0.00000   0.00000   0.00000
  13        4XY         0.00000   0.00000   0.00000   0.00000   0.00000
  14        4XZ         0.00000   0.00000   0.00000   0.00000   0.00000
  15        4YZ         0.00000   0.00000   0.00000   0.00000   0.00000
  16 2   O  1S          0.01035  -0.00967   0.00000   0.00000  -0.03654
  17        2S         -0.02272   0.02213   0.00000   0.00000   0.08401
  18        2PX         0.00000   0.00000   0.27741   0.00000   0.00000
  19        2PY         0.00000   0.00000   0.00000   0.27741   0.00000
  20        2PZ         0.12001  -0.27787   0.00000   0.00000  -0.35239
  21        3S          0.01855  -0.08382   0.00000   0.00000  -0.00463
  22        3PX         0.00000   0.00000   0.15892   0.00000   0.00000
  23        3PY         0.00000   0.00000   0.00000   0.15892   0.00000
  24        3PZ         0.06225  -0.13564   0.00000   0.00000  -0.16483
  25        4XX         0.00257  -0.00424   0.00000   0.00000  -0.00461
  26        4YY         0.00257  -0.00424   0.00000   0.00000  -0.00461
  27        4ZZ        -0.01288   0.02525   0.00000   0.00000   0.02069
  28        4XY         0.00000   0.00000   0.00000   0.00000   0.00000
  29        4XZ         0.00000   0.00000  -0.02071   0.00000   0.00000
  30        4YZ         0.00000   0.00000   0.00000  -0.02071   0.00000
  31 3   O  1S          0.01035  -0.00967   0.00000   0.00000   0.03654
  32        2S         -0.02272   0.02213   0.00000   0.00000  -0.08401
  33        2PX         0.00000   0.00000   0.27741   0.00000   0.00000
  34        2PY         0.00000   0.00000   0.00000   0.27741   0.00000
  35        2PZ        -0.12001   0.27787   0.00000   0.00000  -0.35239
  36        3S          0.01855  -0.08382   0.00000   0.00000   0.00463
  37        3PX         0.00000   0.00000   0.15892   0.00000   0.00000
  38        3PY         0.00000   0.00000   0.00000   0.15892   0.00000
  39        3PZ        -0.06225   0.13564   0.00000   0.00000  -0.16483
  40        4XX         0.00257  -0.00424   0.00000   0.00000   0.00461
  41        4YY         0.00257  -0.00424   0.00000   0.00000   0.00461
  42        4ZZ        -0.01288   0.02525   0.00000   0.00000  -0.02069
  43        4XY         0.00000   0.00000   0.00000   0.00000   0.00000
  44        4XZ         0.00000   0.00000   0.02071   0.00000   0.00000
  45        4YZ         0.00000   0.00000   0.00000   0.02071   0.00000
                           6         7         8         9        10
   6        3S          0.13382
   7        3PX         0.00000   0.06301
   8        3PY         0.00000   0.00000   0.06301
   9        3PZ         0.00000   0.00000   0.00000   0.00440
  10        4XX        -0.00959   0.00000   0.00000   0.00000   0.00182
  11        4YY        -0.00959   0.00000   0.00000   0.00000   0.00182
  12        4ZZ        -0.00292   0.00000   0.00000   0.00000  -0.00123
  13        4XY         0.00000   0.00000   0.00000   0.00000   0.00000
  14        4XZ         0.00000   0.00000   0.00000   0.00000   0.00000
  15        4YZ         0.00000   0.00000   0.00000   0.00000   0.00000
  16 2   O  1S          0.02594   0.00000   0.00000   0.00613   0.00430
  17        2S         -0.07068   0.00000   0.00000  -0.03343  -0.00980
  18        2PX         0.00000   0.12604   0.00000   0.00000   0.00000
  19        2PY         0.00000   0.00000   0.12604   0.00000   0.00000
  20        2PZ        -0.16788   0.00000   0.00000   0.00154   0.01367
  21        3S         -0.13894   0.00000   0.00000  -0.03551  -0.00502
  22        3PX         0.00000   0.07220   0.00000   0.00000   0.00000
  23        3PY         0.00000   0.00000   0.07220   0.00000   0.00000
  24        3PZ        -0.08349   0.00000   0.00000  -0.00072   0.00649
  25        4XX        -0.00117   0.00000   0.00000   0.00064   0.00035
  26        4YY        -0.00117   0.00000   0.00000   0.00064   0.00035
  27        4ZZ         0.01552   0.00000   0.00000  -0.00002  -0.00121
  28        4XY         0.00000   0.00000   0.00000   0.00000   0.00000
  29        4XZ         0.00000  -0.00941   0.00000   0.00000   0.00000
  30        4YZ         0.00000   0.00000  -0.00941   0.00000   0.00000
  31 3   O  1S          0.02594   0.00000   0.00000  -0.00613   0.00430
  32        2S         -0.07068   0.00000   0.00000   0.03343  -0.00980
  33        2PX         0.00000   0.12604   0.00000   0.00000   0.00000
  34        2PY         0.00000   0.00000   0.12604   0.00000   0.00000
  35        2PZ         0.16788   0.00000   0.00000   0.00154  -0.01367
  36        3S         -0.13894   0.00000   0.00000   0.03551  -0.00502
  37        3PX         0.00000   0.07220   0.00000   0.00000   0.00000
  38        3PY         0.00000   0.00000   0.07220   0.00000   0.00000
  39        3PZ         0.08349   0.00000   0.00000  -0.00072  -0.00649
  40        4XX        -0.00117   0.00000   0.00000  -0.00064   0.00035
  41        4YY        -0.00117   0.00000   0.00000  -0.00064   0.00035
  42        4ZZ         0.01552   0.00000   0.00000   0.00002  -0.00121
  43        4XY         0.00000   0.00000   0.00000   0.00000   0.00000
  44        4XZ         0.00000   0.00941   0.00000   0.00000   0.00000
  45        4YZ         0.00000   0.00000   0.00941   0.00000   0.00000
                          11        12        13        14        15
  11        4YY         0.00182
  12        4ZZ        -0.00123   0.00280
  13        4XY         0.00000   0.00000   0.00000
  14        4XZ         0.00000   0.00000   0.00000   0.00534
  15        4YZ         0.00000   0.00000   0.00000   0.00000   0.00534
  16 2   O  1S          0.00430  -0.01433   0.00000   0.00000   0.00000
  17        2S         -0.00980   0.02647   0.00000   0.00000   0.00000
  18        2PX         0.00000   0.00000   0.00000   0.04881   0.00000
  19        2PY         0.00000   0.00000   0.00000   0.00000   0.04881
  20        2PZ         0.01367   0.00109   0.00000   0.00000   0.00000
  21        3S         -0.00502   0.02835   0.00000   0.00000   0.00000
  22        3PX         0.00000   0.00000   0.00000   0.03409   0.00000
  23        3PY         0.00000   0.00000   0.00000   0.00000   0.03409
  24        3PZ         0.00649   0.00096   0.00000   0.00000   0.00000
  25        4XX         0.00035  -0.00040   0.00000   0.00000   0.00000
  26        4YY         0.00035  -0.00040   0.00000   0.00000   0.00000
  27        4ZZ        -0.00121  -0.00012   0.00000   0.00000   0.00000
  28        4XY         0.00000   0.00000   0.00000   0.00000   0.00000
  29        4XZ         0.00000   0.00000   0.00000  -0.00222   0.00000
  30        4YZ         0.00000   0.00000   0.00000   0.00000  -0.00222
  31 3   O  1S          0.00430  -0.01433   0.00000   0.00000   0.00000
  32        2S         -0.00980   0.02647   0.00000   0.00000   0.00000
  33        2PX         0.00000   0.00000   0.00000  -0.04881   0.00000
  34        2PY         0.00000   0.00000   0.00000   0.00000  -0.04881
  35        2PZ        -0.01367  -0.00109   0.00000   0.00000   0.00000
  36        3S         -0.00502   0.02835   0.00000   0.00000   0.00000
  37        3PX         0.00000   0.00000   0.00000  -0.03409   0.00000
  38        3PY         0.00000   0.00000   0.00000   0.00000  -0.03409
  39        3PZ        -0.00649  -0.00096   0.00000   0.00000   0.00000
  40        4XX         0.00035  -0.00040   0.00000   0.00000   0.00000
  41        4YY         0.00035  -0.00040   0.00000   0.00000   0.00000
  42        4ZZ        -0.00121  -0.00012   0.00000   0.00000   0.00000
  43        4XY         0.00000   0.00000   0.00000   0.00000   0.00000
  44        4XZ         0.00000   0.00000   0.00000  -0.00222   0.00000
  45        4YZ         0.00000   0.00000   0.00000   0.00000  -0.00222
                          16        17        18        19        20
  16 2   O  1S          2.07992
  17        2S         -0.19134   0.53844
  18        2PX         0.00000   0.00000   0.69846
  19        2PY         0.00000   0.00000   0.00000   0.69846
  20        2PZ        -0.05007   0.10524   0.00000   0.00000   0.54342
  21        3S         -0.24416   0.60838   0.00000   0.00000   0.28301
  22        3PX         0.00000   0.00000   0.45612   0.00000   0.00000
  23        3PY         0.00000   0.00000   0.00000   0.45612   0.00000
  24        3PZ        -0.03428   0.06735   0.00000   0.00000   0.26538
  25        4XX        -0.01280  -0.00796   0.00000   0.00000   0.00430
  26        4YY        -0.01280  -0.00796   0.00000   0.00000   0.00430
  27        4ZZ        -0.01102  -0.00914   0.00000   0.00000  -0.03897
  28        4XY         0.00000   0.00000   0.00000   0.00000   0.00000
  29        4XZ         0.00000   0.00000  -0.03912   0.00000   0.00000
  30        4YZ         0.00000   0.00000   0.00000  -0.03912   0.00000
  31 3   O  1S          0.00170  -0.00239   0.00000   0.00000  -0.00869
  32        2S         -0.00239   0.00946   0.00000   0.00000   0.02184
  33        2PX         0.00000   0.00000  -0.19420   0.00000   0.00000
  34        2PY         0.00000   0.00000   0.00000  -0.19420   0.00000
  35        2PZ         0.00869  -0.02184   0.00000   0.00000   0.11677
  36        3S         -0.01246   0.01664   0.00000   0.00000   0.01502
  37        3PX         0.00000   0.00000  -0.16725   0.00000   0.00000
  38        3PY         0.00000   0.00000   0.00000  -0.16725   0.00000
  39        3PZ         0.00046  -0.00417   0.00000   0.00000   0.05410
  40        4XX         0.00041   0.00043   0.00000   0.00000  -0.00036
  41        4YY         0.00041   0.00043   0.00000   0.00000  -0.00036
  42        4ZZ         0.00328  -0.00391   0.00000   0.00000  -0.00025
  43        4XY         0.00000   0.00000   0.00000   0.00000   0.00000
  44        4XZ         0.00000   0.00000  -0.00147   0.00000   0.00000
  45        4YZ         0.00000   0.00000   0.00000  -0.00147   0.00000
                          21        22        23        24        25
  21        3S          0.74087
  22        3PX         0.00000   0.30040
  23        3PY         0.00000   0.00000   0.30040
  24        3PZ         0.15546   0.00000   0.00000   0.13020
  25        4XX        -0.00691   0.00000   0.00000   0.00186   0.00031
  26        4YY        -0.00691   0.00000   0.00000   0.00186   0.00031
  27        4ZZ        -0.02228   0.00000   0.00000  -0.01907  -0.00019
  28        4XY         0.00000   0.00000   0.00000   0.00000   0.00000
  29        4XZ         0.00000  -0.02495   0.00000   0.00000   0.00000
  30        4YZ         0.00000   0.00000  -0.02495   0.00000   0.00000
  31 3   O  1S         -0.01246   0.00000   0.00000  -0.00046   0.00041
  32        2S          0.01664   0.00000   0.00000   0.00417   0.00043
  33        2PX         0.00000  -0.16725   0.00000   0.00000   0.00000
  34        2PY         0.00000   0.00000  -0.16725   0.00000   0.00000
  35        2PZ        -0.01502   0.00000   0.00000   0.05410   0.00036
  36        3S          0.03159   0.00000   0.00000   0.00118   0.00073
  37        3PX         0.00000  -0.13492   0.00000   0.00000   0.00000
  38        3PY         0.00000   0.00000  -0.13492   0.00000   0.00000
  39        3PZ        -0.00118   0.00000   0.00000   0.02541   0.00004
  40        4XX         0.00073   0.00000   0.00000  -0.00004  -0.00001
  41        4YY         0.00073   0.00000   0.00000  -0.00004  -0.00001
  42        4ZZ        -0.00634   0.00000   0.00000  -0.00037  -0.00005
  43        4XY         0.00000   0.00000   0.00000   0.00000   0.00000
  44        4XZ         0.00000  -0.00339   0.00000   0.00000   0.00000
  45        4YZ         0.00000   0.00000  -0.00339   0.00000   0.00000
                          26        27        28        29        30
  26        4YY         0.00031
  27        4ZZ        -0.00019   0.00306
  28        4XY         0.00000   0.00000   0.00000
  29        4XZ         0.00000   0.00000   0.00000   0.00233
  30        4YZ         0.00000   0.00000   0.00000   0.00000   0.00233
  31 3   O  1S          0.00041   0.00328   0.00000   0.00000   0.00000
  32        2S          0.00043  -0.00391   0.00000   0.00000   0.00000
  33        2PX         0.00000   0.00000   0.00000   0.00147   0.00000
  34        2PY         0.00000   0.00000   0.00000   0.00000   0.00147
  35        2PZ         0.00036   0.00025   0.00000   0.00000   0.00000
  36        3S          0.00073  -0.00634   0.00000   0.00000   0.00000
  37        3PX         0.00000   0.00000   0.00000   0.00339   0.00000
  38        3PY         0.00000   0.00000   0.00000   0.00000   0.00339
  39        3PZ         0.00004   0.00037   0.00000   0.00000   0.00000
  40        4XX        -0.00001  -0.00005   0.00000   0.00000   0.00000
  41        4YY        -0.00001  -0.00005   0.00000   0.00000   0.00000
  42        4ZZ        -0.00005   0.00065   0.00000   0.00000   0.00000
  43        4XY         0.00000   0.00000   0.00000   0.00000   0.00000
  44        4XZ         0.00000   0.00000   0.00000  -0.00048   0.00000
  45        4YZ         0.00000   0.00000   0.00000   0.00000  -0.00048
                          31        32        33        34        35
  31 3   O  1S          2.07992
  32        2S         -0.19134   0.53844
  33        2PX         0.00000   0.00000   0.69846
  34        2PY         0.00000   0.00000   0.00000   0.69846
  35        2PZ         0.05007  -0.10524   0.00000   0.00000   0.54342
  36        3S         -0.24416   0.60838   0.00000   0.00000  -0.28301
  37        3PX         0.00000   0.00000   0.45612   0.00000   0.00000
  38        3PY         0.00000   0.00000   0.00000   0.45612   0.00000
  39        3PZ         0.03428  -0.06735   0.00000   0.00000   0.26538
  40        4XX        -0.01280  -0.00796   0.00000   0.00000  -0.00430
  41        4YY        -0.01280  -0.00796   0.00000   0.00000  -0.00430
  42        4ZZ        -0.01102  -0.00914   0.00000   0.00000   0.03897
  43        4XY         0.00000   0.00000   0.00000   0.00000   0.00000
  44        4XZ         0.00000   0.00000   0.03912   0.00000   0.00000
  45        4YZ         0.00000   0.00000   0.00000   0.03912   0.00000
                          36        37        38        39        40
  36        3S          0.74087
  37        3PX         0.00000   0.30040
  38        3PY         0.00000   0.00000   0.30040
  39        3PZ        -0.15546   0.00000   0.00000   0.13020
  40        4XX        -0.00691   0.00000   0.00000  -0.00186   0.00031
  41        4YY        -0.00691   0.00000   0.00000  -0.00186   0.00031
  42        4ZZ        -0.02228   0.00000   0.00000   0.01907  -0.00019
  43        4XY         0.00000   0.00000   0.00000   0.00000   0.00000
  44        4XZ         0.00000   0.02495   0.00000   0.00000   0.00000
  45        4YZ         0.00000   0.00000   0.02495   0.00000   0.00000
                          41        42        43        44        45
  41        4YY         0.00031
  42        4ZZ        -0.00019   0.00306
  43        4XY         0.00000   0.00000   0.00000
  44        4XZ         0.00000   0.00000   0.00000   0.00233
  45        4YZ         0.00000   0.00000   0.00000   0.00000   0.00233
    Full Mulliken population analysis:
                           1         2         3         4         5
   1 1   C  1S          2.05204
   2        2S         -0.01887   0.40974
   3        2PX         0.00000   0.00000   0.30523
   4        2PY         0.00000   0.00000   0.00000   0.30523
   5        2PZ         0.00000   0.00000   0.00000   0.00000   0.44009
   6        3S         -0.01738   0.17058   0.00000   0.00000   0.00000
   7        3PX         0.00000   0.00000   0.07901   0.00000   0.00000
   8        3PY         0.00000   0.00000   0.00000   0.07901   0.00000
   9        3PZ         0.00000   0.00000   0.00000   0.00000  -0.01039
  10        4XX        -0.00068  -0.01737   0.00000   0.00000   0.00000
  11        4YY        -0.00068  -0.01737   0.00000   0.00000   0.00000
  12        4ZZ        -0.00148   0.00623   0.00000   0.00000   0.00000
  13        4XY         0.00000   0.00000   0.00000   0.00000   0.00000
  14        4XZ         0.00000   0.00000   0.00000   0.00000   0.00000
  15        4YZ         0.00000   0.00000   0.00000   0.00000   0.00000
  16 2   O  1S          0.00000  -0.00017   0.00000   0.00000  -0.00135
  17        2S         -0.00013   0.00332   0.00000   0.00000   0.02050
  18        2PX         0.00000   0.00000   0.02129   0.00000   0.00000
  19        2PY         0.00000   0.00000   0.00000   0.02129   0.00000
  20        2PZ        -0.00174   0.05100   0.00000   0.00000   0.09102
  21        3S          0.00111  -0.02915   0.00000   0.00000  -0.00150
  22        3PX         0.00000   0.00000   0.04159   0.00000   0.00000
  23        3PY         0.00000   0.00000   0.00000   0.04159   0.00000
  24        3PZ        -0.00872   0.07577   0.00000   0.00000   0.04818
  25        4XX         0.00000  -0.00051   0.00000   0.00000  -0.00080
  26        4YY         0.00000  -0.00051   0.00000   0.00000  -0.00080
  27        4ZZ        -0.00103   0.00979   0.00000   0.00000   0.00923
  28        4XY         0.00000   0.00000   0.00000   0.00000   0.00000
  29        4XZ         0.00000   0.00000   0.00474   0.00000   0.00000
  30        4YZ         0.00000   0.00000   0.00000   0.00474   0.00000
  31 3   O  1S          0.00000  -0.00017   0.00000   0.00000  -0.00135
  32        2S         -0.00013   0.00332   0.00000   0.00000   0.02050
  33        2PX         0.00000   0.00000   0.02129   0.00000   0.00000
  34        2PY         0.00000   0.00000   0.00000   0.02129   0.00000
  35        2PZ        -0.00174   0.05100   0.00000   0.00000   0.09102
  36        3S          0.00111  -0.02915   0.00000   0.00000  -0.00150
  37        3PX         0.00000   0.00000   0.04159   0.00000   0.00000
  38        3PY         0.00000   0.00000   0.00000   0.04159   0.00000
  39        3PZ        -0.00872   0.07577   0.00000   0.00000   0.04818
  40        4XX         0.00000  -0.00051   0.00000   0.00000  -0.00080
  41        4YY         0.00000  -0.00051   0.00000   0.00000  -0.00080
  42        4ZZ        -0.00103   0.00979   0.00000   0.00000   0.00923
  43        4XY         0.00000   0.00000   0.00000   0.00000   0.00000
  44        4XZ         0.00000   0.00000   0.00474   0.00000   0.00000
  45        4YZ         0.00000   0.00000   0.00000   0.00474   0.00000
                           6         7         8         9        10
   6        3S          0.13382
   7        3PX         0.00000   0.06301
   8        3PY         0.00000   0.00000   0.06301
   9        3PZ         0.00000   0.00000   0.00000   0.00440
  10        4XX        -0.00604   0.00000   0.00000   0.00000   0.00182
  11        4YY        -0.00604   0.00000   0.00000   0.00000   0.00061
  12        4ZZ        -0.00184   0.00000   0.00000   0.00000  -0.00041
  13        4XY         0.00000   0.00000   0.00000   0.00000   0.00000
  14        4XZ         0.00000   0.00000   0.00000   0.00000   0.00000
  15        4YZ         0.00000   0.00000   0.00000   0.00000   0.00000
  16 2   O  1S          0.00122   0.00000   0.00000   0.00055   0.00000
  17        2S         -0.01923   0.00000   0.00000  -0.01510  -0.00044
  18        2PX         0.00000   0.01851   0.00000   0.00000   0.00000
  19        2PY         0.00000   0.00000   0.01851   0.00000   0.00000
  20        2PZ         0.02409   0.00000   0.00000  -0.00015  -0.00087
  21        3S         -0.07412   0.00000   0.00000  -0.02278  -0.00112
  22        3PX         0.00000   0.03748   0.00000   0.00000   0.00000
  23        3PY         0.00000   0.00000   0.03748   0.00000   0.00000
  24        3PZ         0.04233   0.00000   0.00000   0.00007  -0.00268
  25        4XX        -0.00033   0.00000   0.00000   0.00030   0.00004
  26        4YY        -0.00033   0.00000   0.00000   0.00030   0.00001
  27        4ZZ         0.00593   0.00000   0.00000  -0.00001  -0.00023
  28        4XY         0.00000   0.00000   0.00000   0.00000   0.00000
  29        4XZ         0.00000   0.00159   0.00000   0.00000   0.00000
  30        4YZ         0.00000   0.00000   0.00159   0.00000   0.00000
  31 3   O  1S          0.00122   0.00000   0.00000   0.00055   0.00000
  32        2S         -0.01923   0.00000   0.00000  -0.01510  -0.00044
  33        2PX         0.00000   0.01851   0.00000   0.00000   0.00000
  34        2PY         0.00000   0.00000   0.01851   0.00000   0.00000
  35        2PZ         0.02409   0.00000   0.00000  -0.00015  -0.00087
  36        3S         -0.07412   0.00000   0.00000  -0.02278  -0.00112
  37        3PX         0.00000   0.03748   0.00000   0.00000   0.00000
  38        3PY         0.00000   0.00000   0.03748   0.00000   0.00000
  39        3PZ         0.04233   0.00000   0.00000   0.00007  -0.00268
  40        4XX        -0.00033   0.00000   0.00000   0.00030   0.00004
  41        4YY        -0.00033   0.00000   0.00000   0.00030   0.00001
  42        4ZZ         0.00593   0.00000   0.00000  -0.00001  -0.00023
  43        4XY         0.00000   0.00000   0.00000   0.00000   0.00000
  44        4XZ         0.00000   0.00159   0.00000   0.00000   0.00000
  45        4YZ         0.00000   0.00000   0.00159   0.00000   0.00000
                          11        12        13        14        15
  11        4YY         0.00182
  12        4ZZ        -0.00041   0.00280
  13        4XY         0.00000   0.00000   0.00000
  14        4XZ         0.00000   0.00000   0.00000   0.00534
  15        4YZ         0.00000   0.00000   0.00000   0.00000   0.00534
  16 2   O  1S          0.00000  -0.00070   0.00000   0.00000   0.00000
  17        2S         -0.00044   0.00834   0.00000   0.00000   0.00000
  18        2PX         0.00000   0.00000   0.00000   0.00738   0.00000
  19        2PY         0.00000   0.00000   0.00000   0.00000   0.00738
  20        2PZ        -0.00087  -0.00038   0.00000   0.00000   0.00000
  21        3S         -0.00112   0.01120   0.00000   0.00000   0.00000
  22        3PX         0.00000   0.00000   0.00000   0.00822   0.00000
  23        3PY         0.00000   0.00000   0.00000   0.00000   0.00822
  24        3PZ        -0.00268  -0.00043   0.00000   0.00000   0.00000
  25        4XX         0.00001  -0.00008   0.00000   0.00000   0.00000
  26        4YY         0.00004  -0.00008   0.00000   0.00000   0.00000
  27        4ZZ        -0.00023  -0.00006   0.00000   0.00000   0.00000
  28        4XY         0.00000   0.00000   0.00000   0.00000   0.00000
  29        4XZ         0.00000   0.00000   0.00000   0.00081   0.00000
  30        4YZ         0.00000   0.00000   0.00000   0.00000   0.00081
  31 3   O  1S          0.00000  -0.00070   0.00000   0.00000   0.00000
  32        2S         -0.00044   0.00834   0.00000   0.00000   0.00000
  33        2PX         0.00000   0.00000   0.00000   0.00738   0.00000
  34        2PY         0.00000   0.00000   0.00000   0.00000   0.00738
  35        2PZ        -0.00087  -0.00038   0.00000   0.00000   0.00000
  36        3S         -0.00112   0.01120   0.00000   0.00000   0.00000
  37        3PX         0.00000   0.00000   0.00000   0.00822   0.00000
  38        3PY         0.00000   0.00000   0.00000   0.00000   0.00822
  39        3PZ        -0.00268  -0.00043   0.00000   0.00000   0.00000
  40        4XX         0.00001  -0.00008   0.00000   0.00000   0.00000
  41        4YY         0.00004  -0.00008   0.00000   0.00000   0.00000
  42        4ZZ        -0.00023  -0.00006   0.00000   0.00000   0.00000
  43        4XY         0.00000   0.00000   0.00000   0.00000   0.00000
  44        4XZ         0.00000   0.00000   0.00000   0.00081   0.00000
  45        4YZ         0.00000   0.00000   0.00000   0.00000   0.00081
                          16        17        18        19        20
  16 2   O  1S          2.07992
  17        2S         -0.04471   0.53844
  18        2PX         0.00000   0.00000   0.69846
  19        2PY         0.00000   0.00000   0.00000   0.69846
  20        2PZ         0.00000   0.00000   0.00000   0.00000   0.54342
  21        3S         -0.04084   0.46459   0.00000   0.00000   0.00000
  22        3PX         0.00000   0.00000   0.22875   0.00000   0.00000
  23        3PY         0.00000   0.00000   0.00000   0.22875   0.00000
  24        3PZ         0.00000   0.00000   0.00000   0.00000   0.13309
  25        4XX        -0.00043  -0.00436   0.00000   0.00000   0.00000
  26        4YY        -0.00043  -0.00436   0.00000   0.00000   0.00000
  27        4ZZ        -0.00037  -0.00500   0.00000   0.00000   0.00000
  28        4XY         0.00000   0.00000   0.00000   0.00000   0.00000
  29        4XZ         0.00000   0.00000   0.00000   0.00000   0.00000
  30        4YZ         0.00000   0.00000   0.00000   0.00000   0.00000
  31 3   O  1S          0.00000   0.00000   0.00000   0.00000   0.00000
  32        2S          0.00000   0.00000   0.00000   0.00000   0.00000
  33        2PX         0.00000   0.00000   0.00000   0.00000   0.00000
  34        2PY         0.00000   0.00000   0.00000   0.00000   0.00000
  35        2PZ         0.00000   0.00000   0.00000   0.00000  -0.00001
  36        3S         -0.00001   0.00011   0.00000   0.00000  -0.00014
  37        3PX         0.00000   0.00000  -0.00062   0.00000   0.00000
  38        3PY         0.00000   0.00000   0.00000  -0.00062   0.00000
  39        3PZ         0.00000  -0.00010   0.00000   0.00000  -0.00176
  40        4XX         0.00000   0.00000   0.00000   0.00000   0.00000
  41        4YY         0.00000   0.00000   0.00000   0.00000   0.00000
  42        4ZZ         0.00000   0.00000   0.00000   0.00000   0.00000
  43        4XY         0.00000   0.00000   0.00000   0.00000   0.00000
  44        4XZ         0.00000   0.00000   0.00000   0.00000   0.00000
  45        4YZ         0.00000   0.00000   0.00000   0.00000   0.00000
                          21        22        23        24        25
  21        3S          0.74087
  22        3PX         0.00000   0.30040
  23        3PY         0.00000   0.00000   0.30040
  24        3PZ         0.00000   0.00000   0.00000   0.13020
  25        4XX        -0.00483   0.00000   0.00000   0.00000   0.00031
  26        4YY        -0.00483   0.00000   0.00000   0.00000   0.00010
  27        4ZZ        -0.01558   0.00000   0.00000   0.00000  -0.00006
  28        4XY         0.00000   0.00000   0.00000   0.00000   0.00000
  29        4XZ         0.00000   0.00000   0.00000   0.00000   0.00000
  30        4YZ         0.00000   0.00000   0.00000   0.00000   0.00000
  31 3   O  1S         -0.00001   0.00000   0.00000   0.00000   0.00000
  32        2S          0.00011   0.00000   0.00000  -0.00010   0.00000
  33        2PX         0.00000  -0.00062   0.00000   0.00000   0.00000
  34        2PY         0.00000   0.00000  -0.00062   0.00000   0.00000
  35        2PZ        -0.00014   0.00000   0.00000  -0.00176   0.00000
  36        3S          0.00149   0.00000   0.00000  -0.00014   0.00001
  37        3PX         0.00000  -0.00637   0.00000   0.00000   0.00000
  38        3PY         0.00000   0.00000  -0.00637   0.00000   0.00000
  39        3PZ        -0.00014   0.00000   0.00000  -0.00612   0.00000
  40        4XX         0.00001   0.00000   0.00000   0.00000   0.00000
  41        4YY         0.00001   0.00000   0.00000   0.00000   0.00000
  42        4ZZ        -0.00019   0.00000   0.00000   0.00003   0.00000
  43        4XY         0.00000   0.00000   0.00000   0.00000   0.00000
  44        4XZ         0.00000  -0.00005   0.00000   0.00000   0.00000
  45        4YZ         0.00000   0.00000  -0.00005   0.00000   0.00000
                          26        27        28        29        30
  26        4YY         0.00031
  27        4ZZ        -0.00006   0.00306
  28        4XY         0.00000   0.00000   0.00000
  29        4XZ         0.00000   0.00000   0.00000   0.00233
  30        4YZ         0.00000   0.00000   0.00000   0.00000   0.00233
  31 3   O  1S          0.00000   0.00000   0.00000   0.00000   0.00000
  32        2S          0.00000   0.00000   0.00000   0.00000   0.00000
  33        2PX         0.00000   0.00000   0.00000   0.00000   0.00000
  34        2PY         0.00000   0.00000   0.00000   0.00000   0.00000
  35        2PZ         0.00000   0.00000   0.00000   0.00000   0.00000
  36        3S          0.00001  -0.00019   0.00000   0.00000   0.00000
  37        3PX         0.00000   0.00000   0.00000  -0.00005   0.00000
  38        3PY         0.00000   0.00000   0.00000   0.00000  -0.00005
  39        3PZ         0.00000   0.00003   0.00000   0.00000   0.00000
  40        4XX         0.00000   0.00000   0.00000   0.00000   0.00000
  41        4YY         0.00000   0.00000   0.00000   0.00000   0.00000
  42        4ZZ         0.00000   0.00001   0.00000   0.00000   0.00000
  43        4XY         0.00000   0.00000   0.00000   0.00000   0.00000
  44        4XZ         0.00000   0.00000   0.00000   0.00000   0.00000
  45        4YZ         0.00000   0.00000   0.00000   0.00000   0.00000
                          31        32        33        34        35
  31 3   O  1S          2.07992
  32        2S         -0.04471   0.53844
  33        2PX         0.00000   0.00000   0.69846
  34        2PY         0.00000   0.00000   0.00000   0.69846
  35        2PZ         0.00000   0.00000   0.00000   0.00000   0.54342
  36        3S         -0.04084   0.46459   0.00000   0.00000   0.00000
  37        3PX         0.00000   0.00000   0.22875   0.00000   0.00000
  38        3PY         0.00000   0.00000   0.00000   0.22875   0.00000
  39        3PZ         0.00000   0.00000   0.00000   0.00000   0.13309
  40        4XX        -0.00043  -0.00436   0.00000   0.00000   0.00000
  41        4YY        -0.00043  -0.00436   0.00000   0.00000   0.00000
  42        4ZZ        -0.00037  -0.00500   0.00000   0.00000   0.00000
  43        4XY         0.00000   0.00000   0.00000   0.00000   0.00000
  44        4XZ         0.00000   0.00000   0.00000   0.00000   0.00000
  45        4YZ         0.00000   0.00000   0.00000   0.00000   0.00000
                          36        37        38        39        40
  36        3S          0.74087
  37        3PX         0.00000   0.30040
  38        3PY         0.00000   0.00000   0.30040
  39        3PZ         0.00000   0.00000   0.00000   0.13020
  40        4XX        -0.00483   0.00000   0.00000   0.00000   0.00031
  41        4YY        -0.00483   0.00000   0.00000   0.00000   0.00010
  42        4ZZ        -0.01558   0.00000   0.00000   0.00000  -0.00006
  43        4XY         0.00000   0.00000   0.00000   0.00000   0.00000
  44        4XZ         0.00000   0.00000   0.00000   0.00000   0.00000
  45        4YZ         0.00000   0.00000   0.00000   0.00000   0.00000
                          41        42        43        44        45
  41        4YY         0.00031
  42        4ZZ        -0.00006   0.00306
  43        4XY         0.00000   0.00000   0.00000
  44        4XZ         0.00000   0.00000   0.00000   0.00233
  45        4YZ         0.00000   0.00000   0.00000   0.00000   0.00233
     Gross orbital populations:
                           1
   1 1   C  1S          1.99196
   2        2S          0.75202
   3        2PX         0.51947
   4        2PY         0.51947
   5        2PZ         0.75866
   6        3S          0.23217
   7        3PX         0.25718
   8        3PY         0.25718
   9        3PZ        -0.07965
  10        4XX        -0.03264
  11        4YY        -0.03264
  12        4ZZ         0.04051
  13        4XY         0.00000
  14        4XZ         0.03817
  15        4YZ         0.03817
  16 2   O  1S          1.99269
  17        2S          0.94141
  18        2PX         0.97377
  19        2PY         0.97377
  20        2PZ         0.83669
  21        3S          1.02304
  22        3PX         0.60940
  23        3PY         0.60940
  24        3PZ         0.40704
  25        4XX        -0.01064
  26        4YY        -0.01064
  27        4ZZ         0.00521
  28        4XY         0.00000
  29        4XZ         0.00942
  30        4YZ         0.00942
  31 3   O  1S          1.99269
  32        2S          0.94141
  33        2PX         0.97377
  34        2PY         0.97377
  35        2PZ         0.83669
  36        3S          1.02304
  37        3PX         0.60940
  38        3PY         0.60940
  39        3PZ         0.40704
  40        4XX        -0.01064
  41        4YY        -0.01064
  42        4ZZ         0.00521
  43        4XY         0.00000
  44        4XZ         0.00942
  45        4YZ         0.00942
          Condensed to atoms (all electrons):
               1          2          3
     1  C    4.266665   0.496687   0.496687
     2  O    0.496687   7.897745  -0.024452
     3  O    0.496687  -0.024452   7.897745
 Mulliken charges:
               1
     1  C    0.739960
     2  O   -0.369980
     3  O   -0.369980
 Sum of Mulliken charges =   0.00000
 Mulliken charges with hydrogens summed into heavy atoms:
               1
     1  C    0.739960
     2  O   -0.369980
     3  O   -0.369980
 Electronic spatial extent (au):  <R**2>=            126.7934
 Charge=              0.0000 electrons
 Dipole moment (field-independent basis, Debye):
    X=              0.0000    Y=              0.0000    Z=              0.0000  Tot=              0.0000
 Quadrupole moment (field-independent basis, Debye-Ang):
   XX=            -14.8489   YY=            -14.8489   ZZ=            -19.1443
   XY=              0.0000   XZ=              0.0000   YZ=              0.0000
 Traceless Quadrupole moment (field-independent basis, Debye-Ang):
   XX=              1.4318   YY=              1.4318   ZZ=             -2.8636
   XY=              0.0000   XZ=              0.0000   YZ=              0.0000
 Octapole moment (field-independent basis, Debye-Ang**2):
  XXX=              0.0000  YYY=              0.0000  ZZZ=              0.0000  XYY=              0.0000
  XXY=              0.0000  XXZ=              0.0000  XZZ=              0.0000  YZZ=              0.0000
  YYZ=              0.0000  XYZ=              0.0000
 Hexadecapole moment (field-independent basis, Debye-Ang**3):
 XXXX=            -10.9558 YYYY=            -10.9558 ZZZZ=           -113.7108 XXXY=              0.0000
[...]
                ( 34.90%)  -0.5908* O   3 s( 36.24%)p 1.75( 63.33%)d 0.01(  0.43%)
                                            0.0000  0.6016 -0.0217 -0.0022  0.0000
                                            0.0000  0.0000  0.0000  0.7956 -0.0182
                                            0.0000  0.0000  0.0000  0.0000  0.0658


 NHO Directionality and "Bond Bending" (deviations from line of nuclear centers)

         [Thresholds for printing:  angular deviation  >  1.0 degree]
                                    hybrid p-character > 25.0%
                                    orbital occupancy  >  0.10e

                                Line of Centers        Hybrid 1              Hybrid 2
                                ---------------  -------------------   ------------------
                NBO               Theta   Phi    Theta   Phi    Dev    Theta   Phi    Dev
 ========================================================================================
     2. BD (   2) C   1 - O   2     0.0    0.0    90.0    0.0  90.0     90.0    0.0  90.0
     3. BD (   3) C   1 - O   2     0.0    0.0    90.0   90.0  90.0     90.0   90.0  90.0
     8. LP (   1) O   2             --     --      0.0    0.0   --       --     --    --
     9. LP (   1) O   3             --     --    180.0    0.0   --       --     --    --
    10. LP (   2) O   3             --     --     90.0    0.0   --       --     --    --
    11. LP (   3) O   3             --     --     90.0   90.0   --       --     --    --
    43. BD*(   2) C   1 - O   2     0.0    0.0    90.0    0.0  90.0     90.0    0.0  90.0
    44. BD*(   3) C   1 - O   2     0.0    0.0    90.0   90.0  90.0     90.0   90.0  90.0


 Second Order Perturbation Theory Analysis of Fock Matrix in NBO Basis

     Threshold for printing:   0.50 kcal/mol
                                                                              E(2)  E(j)-E(i) F(i,j)
         Donor NBO (i)                     Acceptor NBO (j)                 kcal/mol   a.u.    a.u. 
 ===================================================================================================

 within unit  1
   1. BD (   1) C   1 - O   2        / 12. RY*(   1) C   1                    0.95    1.67    0.036
   1. BD (   1) C   1 - O   2        / 32. RY*(   1) O   3                    1.70    3.23    0.066
   1. BD (   1) C   1 - O   2        / 45. BD*(   1) C   1 - O   3            2.86    1.82    0.065
   2. BD (   2) C   1 - O   2        / 34. RY*(   3) O   3                    1.03    1.50    0.035
   2. BD (   2) C   1 - O   2        / 43. BD*(   2) C   1 - O   2            2.00    0.44    0.029
   3. BD (   3) C   1 - O   2        / 33. RY*(   2) O   3                    1.03    1.50    0.035
   3. BD (   3) C   1 - O   2        / 44. BD*(   3) C   1 - O   2            2.00    0.44    0.029
   4. BD (   1) C   1 - O   3        / 12. RY*(   1) C   1                    0.95    1.67    0.036
   4. BD (   1) C   1 - O   3        / 22. RY*(   1) O   2                    1.70    3.23    0.066
   4. BD (   1) C   1 - O   3        / 42. BD*(   1) C   1 - O   2            2.86    1.82    0.065
   6. CR (   1) O   2                / 12. RY*(   1) C   1                    4.79   19.48    0.274
   6. CR (   1) O   2                / 45. BD*(   1) C   1 - O   3            3.99   19.62    0.251
   7. CR (   1) O   3                / 12. RY*(   1) C   1                    4.79   19.48    0.274
   7. CR (   1) O   3                / 42. BD*(   1) C   1 - O   2            3.99   19.62    0.251
   8. LP (   1) O   2                / 12. RY*(   1) C   1                   10.67    1.28    0.105
   8. LP (   1) O   2                / 15. RY*(   4) C   1                    1.31    4.21    0.067
   8. LP (   1) O   2                / 16. RY*(   5) C   1                    0.71    2.95    0.041
   8. LP (   1) O   2                / 32. RY*(   1) O   3                    0.89    2.85    0.045
   8. LP (   1) O   2                / 45. BD*(   1) C   1 - O   3           15.41    1.43    0.133
   9. LP (   1) O   3                / 12. RY*(   1) C   1                   10.67    1.28    0.105
   9. LP (   1) O   3                / 15. RY*(   4) C   1                    1.31    4.21    0.067
   9. LP (   1) O   3                / 16. RY*(   5) C   1                    0.71    2.95    0.041
   9. LP (   1) O   3                / 22. RY*(   1) O   2                    0.89    2.85    0.045
   9. LP (   1) O   3                / 42. BD*(   1) C   1 - O   2           15.41    1.43    0.133
  10. LP (   2) O   3                / 13. RY*(   2) C   1                    3.22    3.04    0.098
  10. LP (   2) O   3                / 19. RY*(   8) C   1                    1.72    0.81    0.037
  10. LP (   2) O   3                / 28. RY*(   7) O   2                    0.64    2.11    0.037
  10. LP (   2) O   3                / 38. RY*(   7) O   3                    1.51    2.11    0.056
  10. LP (   2) O   3                / 43. BD*(   2) C   1 - O   2          137.71    0.31    0.184
  11. LP (   3) O   3                / 14. RY*(   3) C   1                    3.22    3.04    0.098
  11. LP (   3) O   3                / 18. RY*(   7) C   1                    1.72    0.81    0.037
  11. LP (   3) O   3                / 29. RY*(   8) O   2                    0.64    2.11    0.037
  11. LP (   3) O   3                / 39. RY*(   8) O   3                    1.51    2.11    0.056
  11. LP (   3) O   3                / 44. BD*(   3) C   1 - O   2          137.71    0.31    0.184
  43. BD*(   2) C   1 - O   2        / 13. RY*(   2) C   1                    2.44    2.73    0.166
  43. BD*(   2) C   1 - O   2        / 19. RY*(   8) C   1                    2.82    0.50    0.077
  43. BD*(   2) C   1 - O   2        / 24. RY*(   3) O   2                    0.75    1.06    0.058
  43. BD*(   2) C   1 - O   2        / 28. RY*(   7) O   2                    1.52    1.80    0.107
  43. BD*(   2) C   1 - O   2        / 38. RY*(   7) O   3                    0.52    1.80    0.063
  44. BD*(   3) C   1 - O   2        / 14. RY*(   3) C   1                    2.44    2.73    0.166
  44. BD*(   3) C   1 - O   2        / 18. RY*(   7) C   1                    2.82    0.50    0.077
  44. BD*(   3) C   1 - O   2        / 23. RY*(   2) O   2                    0.75    1.06    0.058
  44. BD*(   3) C   1 - O   2        / 29. RY*(   8) O   2                    1.52    1.80    0.107
  44. BD*(   3) C   1 - O   2        / 39. RY*(   8) O   3                    0.52    1.80    0.063


 Natural Bond Orbitals (Summary):

                                                            Principal Delocalizations
           NBO                        Occupancy    Energy   (geminal,vicinal,remote)
 ====================================================================================
 Molecular unit  1  (CO2)
     1. BD (   1) C   1 - O   2          1.99862    -1.17478  45(g),32(v),12(g)
     2. BD (   2) C   1 - O   2          1.99891    -0.45742  43(g),34(v)
     3. BD (   3) C   1 - O   2          1.99891    -0.45742  44(g),33(v)
     4. BD (   1) C   1 - O   3          1.99862    -1.17478  42(g),22(v),12(g)
     5. CR (   1) C   1                  1.99981   -10.27243   
     6. CR (   1) O   2                  1.99980   -18.98155  12(v),45(v)
     7. CR (   1) O   3                  1.99980   -18.98155  12(v),42(v)
     8. LP (   1) O   2                  1.97174    -0.78804  45(v),12(v),15(v),32(r)
                                                    16(v)
     9. LP (   1) O   3                  1.97174    -0.78804  42(v),12(v),15(v),22(r)
                                                    16(v)
    10. LP (   2) O   3                  1.61451    -0.32948  43(v),13(v),19(v),38(g)
                                                    28(r)
    11. LP (   3) O   3                  1.61451    -0.32948  44(v),14(v),18(v),39(g)
                                                    29(r)
    12. RY*(   1) C   1                  0.02328     0.49479   
    13. RY*(   2) C   1                  0.00525     2.70653   
    14. RY*(   3) C   1                  0.00525     2.70653   
    15. RY*(   4) C   1                  0.00154     3.42258   
    16. RY*(   5) C   1                  0.00004     2.16117   
    17. RY*(   6) C   1                  0.00000     1.70045   
    18. RY*(   7) C   1                  0.00000     0.47748   
    19. RY*(   8) C   1                  0.00000     0.47748   
    20. RY*(   9) C   1                  0.00000     1.70045   
    21. RY*(  10) C   1                  0.00000     2.21262   
    22. RY*(   1) O   2                  0.00121     2.05972   
    23. RY*(   2) O   2                  0.00116     1.04138   
    24. RY*(   3) O   2                  0.00116     1.04138   
    25. RY*(   4) O   2                  0.00009     2.33966   
    26. RY*(   5) O   2                  0.00003     3.29632   
    27. RY*(   6) O   2                  0.00000     1.72366   
    28. RY*(   7) O   2                  0.00000     1.77963   
    29. RY*(   8) O   2                  0.00000     1.77963   
    30. RY*(   9) O   2                  0.00000     1.72366   
    31. RY*(  10) O   2                  0.00000     1.52063   
    32. RY*(   1) O   3                  0.00121     2.05972   
    33. RY*(   2) O   3                  0.00109     1.04163   
    34. RY*(   3) O   3                  0.00109     1.04163   
    35. RY*(   4) O   3                  0.00009     2.33966   
    36. RY*(   5) O   3                  0.00003     3.29632   
    37. RY*(   6) O   3                  0.00000     1.72366   
    38. RY*(   7) O   3                  0.00000     1.77963   
    39. RY*(   8) O   3                  0.00000     1.77963   
    40. RY*(   9) O   3                  0.00000     1.72366   
    41. RY*(  10) O   3                  0.00000     1.52063   
    42. BD*(   1) C   1 - O   2          0.01618     0.64270   
    43. BD*(   2) C   1 - O   2          0.37908    -0.02221  19(g),13(g),28(g),24(g)
                                                    38(v)
    44. BD*(   3) C   1 - O   2          0.37908    -0.02221  18(g),14(g),29(g),23(g)
                                                    39(v)
    45. BD*(   1) C   1 - O   3          0.01618     0.64270   
       -------------------------------
              Total Lewis   21.16695  ( 96.2134%)
        Valence non-Lewis    0.79052  (  3.5933%)
        Rydberg non-Lewis    0.04253  (  0.1933%)
       -------------------------------
            Total unit  1   22.00000  (100.0000%)
           Charge unit  1    0.00000
 Calling FoFJK, ICntrl=    100127 FMM=F ISym2X=1 I1Cent= 0 IOpClX= 0 NMat=1 NMatS=1 NMatT=0.
 Full mass-weighted force constant matrix:
 Low frequencies ---   -4.4563   -4.4563   -0.0010   -0.0010   -0.0009  639.9909
 Low frequencies ---  639.9909 1372.0765 2436.3733
 Diagonal vibrational polarizability:
        2.0183088       2.0183088       2.4746074
 Harmonic frequencies (cm**-1), IR intensities (KM/Mole), Raman scattering
 activities (A**4/AMU), depolarization ratios for plane and unpolarized
 incident light, reduced masses (AMU), force constants (mDyne/A),
 and normal coordinates:
                      1                      2                      3
                     PIU                    PIU                    SGG
 Frequencies --    639.9909               639.9909              1372.0765
 Red. masses --     12.8774                12.8774                15.9949
 Frc consts  --      3.1076                 3.1076                17.7414
 IR Inten    --     30.7186                30.7186                 0.0000
  Atom  AN      X      Y      Z        X      Y      Z        X      Y      Z
     1   6     0.00   0.88   0.00     0.88   0.00   0.00     0.00   0.00   0.00
     2   8     0.00  -0.33   0.00    -0.33   0.00   0.00     0.00   0.00   0.71
     3   8     0.00  -0.33   0.00    -0.33   0.00   0.00     0.00   0.00  -0.71
                      4
                     SGU
 Frequencies --   2436.3733
 Red. masses --     12.8774
 Frc consts  --     45.0365
 IR Inten    --    545.8344
  Atom  AN      X      Y      Z
     1   6     0.00   0.00   0.88
     2   8     0.00   0.00  -0.33
     3   8     0.00   0.00  -0.33

 -------------------
 - Thermochemistry -
 -------------------
 Temperature   298.150 Kelvin.  Pressure   1.00000 Atm.
 Atom     1 has atomic number  6 and mass  12.00000
 Atom     2 has atomic number  8 and mass  15.99491
 Atom     3 has atomic number  8 and mass  15.99491
 Molecular mass:    43.98983 amu.
 Principal axes and moments of inertia in atomic units:
                           1         2         3
     Eigenvalues --     0.00000 156.15233 156.15233
           X            0.00000   1.00000   0.00000
           Y            0.00000   0.00000   1.00000
           Z            1.00000   0.00000   0.00000
 This molecule is a prolate symmetric top.
 Rotational symmetry number  2.
 Rotational temperature (Kelvin)      0.55468
 Rotational constant (GHZ):          11.557568
 Zero-point vibrational energy      30435.6 (Joules/Mol)
                                    7.27428 (Kcal/Mol)
 Vibrational temperatures:    920.80   920.80  1974.11  3505.39
          (Kelvin)
 
 Zero-point correction=                           0.011592 (Hartree/Particle)
 Thermal correction to Energy=                    0.014240
 Thermal correction to Enthalpy=                  0.015184
 Thermal correction to Gibbs Free Energy=        -0.009126
 Sum of electronic and zero-point Energies=           -188.569347
 Sum of electronic and thermal Energies=              -188.566700
 Sum of electronic and thermal Enthalpies=            -188.565756
 Sum of electronic and thermal Free Energies=         -188.590066
 
                     E (Thermal)             CV                S
                      KCal/Mol        Cal/Mol-Kelvin    Cal/Mol-Kelvin
 Total                    8.936              6.983             51.165
 Electronic               0.000              0.000              0.000
 Translational            0.889              2.981             37.270
 Rotational               0.592              1.987             13.103
 Vibrational              7.454              2.015              0.792
                       Q            Log10(Q)             Ln(Q)
 Total Bot       0.157715D+05          4.197872          9.665958
 Total V=0       0.338804D+10          9.529949         21.943518
 Vib (Bot)       0.511708D-05         -5.290978        -12.182926
 Vib (V=0)       0.109926D+01          0.041099          0.094634
 Electronic      0.100000D+01          0.000000          0.000000
 Translational   0.114679D+08          7.059484         16.255062
 Rotational      0.268761D+03          2.429366          5.593822
 ***** Axes restored to original set *****
 -------------------------------------------------------------------
 Center     Atomic                   Forces (Hartrees/Bohr)
 Number     Number              X              Y              Z
 -------------------------------------------------------------------
      1        6           0.000000000    0.000000000    0.000000000
      2        8           0.000024482    0.000000000    0.000000000
      3        8          -0.000024482    0.000000000    0.000000000
 -------------------------------------------------------------------
 Cartesian Forces:  Max     0.000024482 RMS     0.000011541
 FormGI is forming the generalized inverse of G from B-inverse, IUseBI=4.

 GradGradGradGradGradGradGradGradGradGradGradGradGradGradGradGradGradGrad
 Berny optimization.
 Internal  Forces:  Max     0.000024482 RMS     0.000017311
 Search for a local minimum.
 Step number   1 out of a maximum of    2
 All quantities printed in internal units (Hartrees-Bohrs-Radians)
 Second derivative matrix not updated -- analytic derivatives used.
 The second derivative matrix:
                          R1        R2        A1        A2
           R1           1.05984
           R2           0.07970   1.05984
           A1           0.00000   0.00000   0.16509
           A2           0.00000   0.00000   0.00000   0.16509
 ITU=  0
     Eigenvalues ---    0.16509   0.16509   0.98014   1.13954
 Angle between quadratic step and forces=   0.00 degrees.
 Linear search not attempted -- first point.
 Iteration  1 RMS(Cart)=  0.00001519 RMS(Int)=  0.00000000
 Iteration  2 RMS(Cart)=  0.00000000 RMS(Int)=  0.00000000
 ClnCor:  largest displacement from symmetrization is 5.15D-14 for atom     1.
 Variable       Old X    -DE/DX   Delta X   Delta X   Delta X     New X
                                 (Linear)    (Quad)   (Total)
    R1        2.20937   0.00002   0.00000   0.00002   0.00002   2.20939
    R2        2.20937   0.00002   0.00000   0.00002   0.00002   2.20939
    A1        3.14159   0.00000   0.00000   0.00000   0.00000   3.14159
    A2        3.14159   0.00000   0.00000   0.00000   0.00000   3.14159
         Item               Value     Threshold  Converged?
 Maximum Force            0.000024     0.000450     YES
 RMS     Force            0.000017     0.000300     YES
 Maximum Displacement     0.000021     0.001800     YES
 RMS     Displacement     0.000015     0.001200     YES
 Predicted change in Energy=-5.259645D-10
 Optimization completed.
    -- Stationary point found.
                           ----------------------------
                           !   Optimized Parameters   !
                           ! (Angstroms and Degrees)  !
 --------------------------                            --------------------------
 ! Name  Definition              Value          Derivative Info.                !
 --------------------------------------------------------------------------------
 ! R1    R(1,2)                  1.1691         -DE/DX =    0.0                 !
 ! R2    R(1,3)                  1.1691         -DE/DX =    0.0                 !
 ! A1    L(2,1,3,-2,-1)        180.0            -DE/DX =    0.0                 !
 ! A2    L(2,1,3,-3,-2)        180.0            -DE/DX =    0.0                 !
 --------------------------------------------------------------------------------
 GradGradGradGradGradGradGradGradGradGradGradGradGradGradGradGradGradGrad

 1|1| IMPERIAL COLLEGE-WCBC-109B-001|Freq|RB3LYP|6-31G(d,p)|C1O2|HC2616
 |08-Aug-2019|0||#N Geom=AllCheck Guess=TCheck SCRF=Check GenChk RB3LYP
 /6-31G(d,p) Freq||Title Card Required||0,1|C,-0.0519176,-0.21148716,0.
 11076956|O,1.11723016,-0.21148716,0.11076956|O,-1.22106536,-0.21148716
 ,0.11076956||Version=EM64W-G09RevD.01|State=1-SGG|HF=-188.5809395|RMSD
 =1.364e-009|RMSF=1.154e-005|ZeroPoint=0.0115923|Thermal=0.0142397|Dipo
 le=0.,0.,0.|DipoleDeriv=2.2104223,0.,0.,0.,0.5243797,0.,0.,0.,0.524379
 7,-1.1052111,0.,0.,0.,-0.2621898,0.,0.,0.,-0.2621898,-1.1052111,0.,0.,
 0.,-0.2621898,0.,0.,0.,-0.2621898|Polar=22.0748881,0.,7.6884663,0.,0.,
 7.6884663|PG=D*H [O(C1),C*(O1.O1)]|NImag=0||1.96028857,0.,0.13526327,0
 .,0.,0.13526327,-0.98014428,0.,0.,1.05984272,0.,-0.06763164,0.,0.,0.03
 380981,0.,0.,-0.06763164,0.,0.,0.03380981,-0.98014428,0.,0.,-0.0796984
 4,0.,0.,1.05984272,0.,-0.06763164,0.,0.,0.03382183,0.,0.,0.03380981,0.
 ,0.,-0.06763164,0.,0.,0.03382183,0.,0.,0.03380981||0.,0.,0.,-0.0000244
 8,0.,0.,0.00002448,0.,0.|||@


 SOME THINGS ARE EASY, THEY ARE ONLY HARD TO DO.
            -- A. EINSTEIN TO J. O. HIRSCHFELDER
 THE ONLY TROUBLE WITH A SURE THING IS THE UNCERTAINTY.
     -- FROM A TEABAG (BELONGING TO W.H.?)
 Job cpu time:       0 days  0 hours  0 minutes 15.0 seconds.
 File lengths (MBytes):  RWF=      5 Int=      0 D2E=      0 Chk=      1 Scr=      1
 Normal termination of Gaussian 09 at Thu Aug 08 12:22:49 2019.
